chirality_corrected
  2189
  26.4760000   5.5760000  31.9720000  26.4395507   6.2877169  31.2562965
  27.4027820   5.5664104  32.3733521  25.6678531   5.6749721  32.5696644
  26.3200000   4.2620000  31.3200000  27.1924373   3.6419979  31.5262757
  25.1040000   3.5750000  31.8660000  24.2208842   4.1794841  31.6591050
  24.9944715   2.5989643  31.3932864  25.2115122   3.4464822  32.9430439
  26.2170000   4.4130000  29.7960000  25.7980000   5.4590000  29.2970000
  26.6090000   3.3660000  29.0700000  27.1117556   2.6087853  29.5104111
  26.3370000   3.2760000  27.6380000  26.3325160   4.2251068  27.1020193
  27.4060000   2.3990000  27.0520000  27.3710216   1.4418926  27.5724057
  27.2450000   2.1820000  25.6370000  27.2803381   3.1386839  25.1158409
  28.0481285   1.5409422  25.2735050  26.2845381   1.7019495  25.4494765
  28.7010000   2.9720000  27.3570000  29.3915280   2.4177552  26.9860766
  24.9380000   2.6650000  27.4790000  24.6050000   1.7690000  28.2320000
  24.1350000   3.1660000  26.5380000  24.5007260   3.8902245  25.9364664
  22.7320000   2.7680000  26.3740000  22.5520981   1.8481835  26.9304820
  21.7810000   3.8410000  26.8870000  22.0056329   4.7668875  26.3574987
  20.7643493   3.5260287  26.6518098  21.9080000   4.0740000  28.4050000
  21.7008963   3.1260000  28.9014925  22.9368376   4.3720967  28.6068257
  20.9820000   5.1140000  28.9190000  21.1929727   6.0467046  28.3958828
  19.9613912   4.7989799  28.7016993  21.1440000   5.3340000  30.4690000
  21.0280657   4.3648361  30.9541610  22.1516998   5.7100103  30.6457950
  20.1720000   6.2720000  31.0190000  19.2381869   5.9235551  30.8556630
  20.3251895   6.3717484  32.0123193  20.2795437   7.1702316  30.5698748
  22.4160000   2.4520000  24.9390000  22.9740000   3.0560000  24.0020000
  21.4380000   1.5860000  24.7290000  21.0650202   1.0796852  25.5193358
  20.9540000   1.2470000  23.4050000  21.0941179   2.1081822  22.7516766
  21.7160000   0.0490000  22.8100000  21.5777332  -0.8235788  23.4484267
  21.3329469  -0.1668290  21.8126092  22.7776212   0.2879564  22.7470758
  19.4590000   1.0220000  23.4870000  18.8950000   0.8560000  24.5970000
  18.7740000   0.9330000  22.3510000  19.2746636   1.0501682  21.4816859
  17.3330000   0.7490000  22.2970000  16.9054970   0.0657861  23.0308659
  16.6100000   2.1090000  22.4090000  16.9660661   2.6188048  23.3042180
  16.8760000   2.9750000  21.1960000  16.5197603   2.4660243  20.3003785
  16.3531838   3.9251373  21.3055572  17.9468418   3.1582149  21.1075022
  15.1380000   1.9580000  22.7200000  15.0183690   1.4354363  23.6690614
  14.6774981   2.9436072  22.7879422  14.6554958   1.3859458  21.9275074
  17.0010000   0.0230000  21.0180000  17.7180000   0.1050000  20.0110000
  15.8620000  -0.6530000  21.0230000  15.3128206  -0.6865929  21.8699786
  15.3790000  -1.3750000  19.8610000  15.7421447  -0.9099868  18.9444915
  15.8990000  -2.8260000  19.9170000  16.9884735  -2.8372313  19.9489470
  15.5049770  -3.3361883  20.7959504  15.4300000  -3.8370000  18.5000000
  16.0383659  -4.9454025  18.9125931  13.8670000  -1.3520000  19.8410000
  13.2110000  -1.6880000  20.8440000  13.3160000  -0.9880000  18.6910000
  13.9210874  -0.6730504  17.9461676  11.8830000  -1.0280000  18.4450000
  11.3551829  -1.0595460  19.3981595  11.3960000   0.2130000  17.6490000
  11.9354992   0.2700978  16.7036008   9.8940000   0.0950000  17.3730000
   9.3537591   0.0383169  18.3180014   9.5570333   0.9681260  16.8142470
   9.7008204  -0.8055373  16.7900628  11.6580000   1.4250000  18.4310000
  12.7278207   1.5111287  18.6211778  11.3170052   2.2979378  17.8744016
  11.1242572   1.3683699  19.3796899  11.6230000  -2.2940000  17.6280000
  12.1100000  -2.4880000  16.4960000  10.8600000  -3.2350000  18.2250000
  10.5205129  -3.0387886  19.1557787  10.4720000  -4.5020000  17.5960000
  11.2538080  -4.8684031  16.9306999  10.2590000  -5.5360000  18.7240000
   9.5073496  -5.1692033  19.4229857   9.8686768  -6.4051895  18.1946065
  11.5390000  -5.9380000  19.5050000  11.9937392  -5.0416583  19.9267637
  11.1900000  -6.9220000  20.6430000  10.7356095  -7.8188500  20.2219439
  12.0985149  -7.1936852  21.1804835  10.4892046  -6.4489461  21.3308998
  12.4860000  -6.6970000  18.6060000  12.7680250  -6.0685599  17.7612371
  13.3788025  -6.9721590  19.1675091  11.9955919  -7.5988284  18.2395244
   9.1650000  -4.3310000  16.8310000   8.1540000  -3.9330000  17.3960000
   9.1810000  -4.7060000  15.5590000  10.0677835  -4.9902201  15.1679331
   8.0090000  -4.7090000  14.6900000   7.1162894  -4.8402385  15.3015092
   7.8690000  -3.3850000  13.8830000   8.7862877  -3.2950494  13.3011139
   7.0255561  -3.5370592  13.2095162   7.6590000  -2.1520000  14.6620000
   6.8723961  -2.3438389  15.3917622   8.5879994  -1.9194787  15.1825728
   7.2560000  -0.9600000  13.7750000   8.1399884  -0.6348361  13.2264273
   6.4988109  -1.3053075  13.0710633   6.6970000   0.2190000  14.5920000
   5.9740400   0.7508987  13.9735236   6.1953071  -0.1827976  15.4723193
   7.7570000   1.1460000  15.0130000   8.2217218   1.5187575  14.1974111
   7.3508709   1.9028038  15.5444200   8.4267888   0.6534285  15.5864591
   8.1180000  -5.8830000  13.7210000   9.1890000  -6.3420000  13.4050000
   6.9720000  -6.3310000  13.1930000   6.0966144  -5.9122154  13.4730336
   6.9390000  -7.4250000  12.2070000   7.8191437  -7.3560635  11.5677082
   6.9463542  -8.3797833  12.7327700   5.6850000  -7.3460000  11.3370000
   5.0560000  -6.3150000  11.2110000   5.3600000  -8.4740000  10.7280000
   5.9597267  -9.2814413  10.8200090   4.2200000  -8.5560000   9.8100000
   4.1024614  -7.6169737   9.2691549   4.4580000  -9.6770000   8.7970000
   4.6090185 -10.6051551   9.3481994   3.5699174  -9.7669171   8.1714409
   5.6740000  -9.4050000   7.9170000   5.8620000  -8.2490000   7.5200000
   6.4320000 -10.3550000   7.6280000   2.8880000  -8.6980000  10.4770000
   1.8570000  -8.5740000   9.7870000   2.8790000  -9.0180000  11.7490000
   3.7746469  -9.0339961  12.2155405   1.6850000  -9.3480000  12.5280000
   0.7950793  -9.2473830  11.9066977   1.7537581 -10.3700608  12.9005097
   1.5750000  -8.4080000  13.6960000   2.0090000  -7.2650000  13.5970000
   0.9750000  -8.8710000  14.7900000   0.3650000 -10.2310000  14.9740000
   1.1435493 -10.9905170  14.9026193  -0.3809935 -10.4020654  14.1979012
  -0.2180000 -10.1580000  16.2900000   0.4895861 -10.5685414  17.0103309
  -1.1328226 -10.7505019  16.3019380  -0.5060000  -8.7410000  16.5670000
  -0.5019660  -8.5486630  17.6398882  -1.4588642  -8.4218367  16.1447629
   0.6490000  -7.9770000  15.8940000   0.3763478  -7.0219076  15.4450483
   1.7630000  -7.7580000  16.9200000   1.5840000  -7.0030000  17.8820000
   2.9160000  -8.3920000  16.7540000   3.1041639  -8.8984681  15.9006632
   3.9440000  -8.3990000  17.8130000   3.4640094  -8.4272603  18.7912175
   4.8750000  -9.6230000  17.6850000   5.3594433  -9.6047213  16.7087419
   5.9330000  -9.5890000  18.7760000   5.4493006  -9.6077221  19.7526193
   6.5852607 -10.4567269  18.6774783   6.5241506  -8.6781341  18.6813108
   4.0240000 -10.9270000  17.8150000   3.2739975 -10.9523438  17.0244584
   4.6749328 -11.7967071  17.7255821   3.5285770 -10.9428921  18.7857751
   4.7480000  -7.1180000  17.6990000   5.2770000  -6.7610000  16.6250000
   4.8050000  -6.3690000  18.7950000   4.2928955  -6.6402454  19.6222087
   5.5460000  -5.1230000  18.8230000   6.4345851  -5.2032567  18.1968414
   4.6880000  -3.9990000  18.3000000   5.2830583  -3.0882911  18.3679267
   4.4806282  -4.2196451  17.2529027   3.4350000  -3.8130000  19.0130000
   2.8349073  -4.7145958  18.8900584   3.6630301  -3.6701775  20.0692699
   2.6220000  -2.6140000  18.5220000   3.0290000  -1.4810000  18.6930000
   1.4710000  -2.8770000  17.9100000   0.8992738  -2.1177557  17.5682710
   1.1738519  -3.8347792  17.7897363   6.0390000  -4.8020000  20.2250000
   5.4040000  -5.1550000  21.2390000   7.1740000  -4.1420000  20.3250000
   7.7079740  -3.8976039  19.5032691   7.6750000  -3.7580000  21.5870000
   6.8662414  -3.2546427  22.1167547   7.9449155  -4.6701245  22.1192348
   8.8640000  -2.8520000  21.5400000   9.3150000  -2.4380000  20.4490000
   9.3160000  -2.4140000  22.7010000   8.7722525  -2.6825807  23.5086524
  10.4690000  -1.5450000  22.9020000  11.1067129  -1.4948352  22.0194441
  10.0810000  -0.1380000  23.3270000   9.4019367  -0.1931892  24.1778393
  11.3150000   0.6390000  23.7180000  11.9943833   0.6950160  22.8674701
  11.0297519   1.6462967  24.0214596  11.8130457   0.1374567  24.5477614
   9.2490000   0.5780000  22.2440000   9.9174128   0.7720562  21.4051512
   8.4675731  -0.1151109  21.9324412   8.6060000   1.9040000  22.7070000
   9.3868909   2.5978326  23.0182967   8.0396857   2.3405101  21.8842934
   7.9370525   1.7106655  23.5455887  11.3480000  -2.2090000  23.9260000
  10.8840000  -2.4930000  25.0490000  12.6060000  -2.4250000  23.5820000
  12.9043786  -2.1688294  22.6517064  13.5850000  -3.0310000  24.4810000
  13.1455737  -3.2021563  25.4637051  14.0930000  -4.3640000  23.9080000
  14.5089079  -4.1968485  22.9144300  15.2020000  -4.9500000  24.8460000
  14.7866891  -5.1178646  25.8396997  15.5611861  -5.8950044  24.4385043
  16.0310117  -4.2455278  24.9135113  12.9380000  -5.3590000  23.7590000
  12.1919835  -4.8867447  23.1198325  13.3397446  -6.2397689  23.2580539
  12.2890000  -5.7750000  25.0760000  11.8865862  -4.8947580  25.5773352
  11.4818436  -6.4800215  24.8771471  13.0343485  -6.2477804  25.7155578
  14.7460000  -2.0470000  24.6430000  15.3230000  -1.5160000  23.6700000
  15.1410000  -1.8480000  25.8870000  14.6248683  -2.3421724  26.6007934
  16.2570000  -0.9790000  26.3060000  16.5708223  -0.3368805  25.4830193
  15.8020000  -0.1110000  27.4460000  15.6411409  -0.7314098  28.3276549
  16.5898982   0.6137196  27.6511778  14.5730000   0.6090000  27.1540000
  14.6430000   1.5620000  26.4170000  13.4400000   0.1680000  27.7010000
  12.5719719   0.6495711  27.5146768  13.4548779  -0.6456457  28.2992141
  17.4390000  -1.8040000  26.7600000  17.2690000  -2.9220000  27.2930000
  18.6140000  -1.2520000  26.5930000  18.6506239  -0.3357018  26.1697321
  19.8830000  -1.8790000  27.0170000  19.6683792  -2.7524711  27.6326991
  20.7250000  -2.3310000  25.7890000  20.9937972  -1.4785990  25.1650931
  21.6315518  -2.8116088  26.1568030  20.0570000  -3.3090000  24.9040000
  19.1270000  -2.9140000  23.9470000  18.8843532  -1.8549656  23.8594293
  18.5090000  -3.8430000  23.1090000  17.7611353  -3.5551371  22.3701265
  18.8800000  -5.1840000  23.2420000  18.4211246  -5.9179821  22.5795776
  19.7870000  -5.5800000  24.1670000  20.0441948  -6.6355699  24.2548820
  20.3910000  -4.6430000  25.0050000  21.1279528  -4.9649052  25.7407836
  20.6700000  -0.8280000  27.7820000  20.7350000   0.3340000  27.3260000
  21.3450000  -1.2260000  28.8450000  21.2209192  -2.1642992  29.1975591
  22.2190000  -0.3370000  29.5640000  22.5671727   0.4353574  28.8781873
  21.5370000   0.3400000  30.7590000  20.6833739   0.9046304  30.3840143
  21.1871183  -0.4411323  31.4339186  22.4800000   1.2820000  31.5140000
  23.2294038   0.6954532  32.0454675  22.9686863   1.8927990  30.7549154
  21.7520000   2.1830000  32.4970000  22.3350000   3.1830000  32.9200000
  20.5730000   1.8970000  32.8090000  23.4480000  -1.0920000  30.0400000
  23.3210000  -2.1680000  30.6640000  24.6100000  -0.5090000  29.8800000
  24.6527357   0.3663913  29.3780408  25.8780000  -1.1070000  30.3580000
  25.6719677  -1.9380318  31.0325636  26.6890000  -1.6380000  29.1530000
  26.0479352  -2.2898008  28.5594591  27.0077940  -0.7912681  28.5451220
  27.9090000  -2.4150000  29.6180000  28.6002432  -1.7750470  30.1664012
  27.5792695  -3.2294973  30.2629604  28.6590000  -3.0230000  28.3900000
  28.6940000  -2.4200000  27.3030000  29.2810000  -4.1880000  28.5650000
  29.7768868  -4.6129575  27.7945399  29.2538313  -4.6409426  29.4673338
  26.5730000   0.0120000  31.1210000  27.1110000   0.9160000  30.5470000
  26.5360000  -0.0900000  32.4440000  26.0222026  -0.8584810  32.8508765
  27.0600000   0.9330000  33.3300000  26.7612701   1.9119338  32.9551023
  26.5420000   0.7790000  34.7670000  26.8345570  -0.2127423  35.1119012
  27.0400662   1.5355565  35.3733435  25.0410000   0.9360000  34.8970000
  24.7626919   1.9418931  34.5826362  24.5524527   0.2059870  34.2516284
  24.5950000   0.7120000  36.3550000  24.6724308  -0.3543918  36.5669244
  25.2801376   1.2609737  37.0009983  23.1800000   1.1750000  36.6130000
  23.0110677   2.0948432  36.0531331  22.4954205   0.4040621  36.2592984
  22.9400000   1.4250000  38.0630000  23.5739554   2.1396453  38.3908450
  21.9873939   1.7320449  38.1985174  23.0960677   0.5726683  38.5819149
  28.5760000   1.0370000  33.2820000  29.0920000   2.1250000  33.5750000
  29.2680000  -0.0560000  32.9900000  28.7670481  -0.8386396  32.5942454
  30.7010000  -0.1840000  33.1860000  31.1413239   0.8087119  33.2794731
  31.0290000  -0.9900000  34.4580000  30.4818412  -1.9311897  34.4043482
  32.1000550  -1.1923208  34.4552561  30.6560000  -0.2610000  35.7340000
  31.0501670   0.7498881  35.6298924  29.5685200  -0.2217096  35.7967905
  31.2170000  -0.8980000  37.0060000  31.7930000  -2.0120000  36.9480000
  31.0560000  -0.2840000  38.0860000  31.2530000  -0.9180000  31.9940000
  30.5930000  -1.8220000  31.4270000  32.4640000  -0.5580000  31.5950000
  32.8860159   0.2829686  31.9621153  33.1680000  -1.2830000  30.5570000
  32.5943778  -1.2453002  29.6309139  34.5380000  -0.6740000  30.3050000
  35.1704356  -0.8312661  31.1787230  34.9926506  -1.1519282  29.4372572
  34.4050000   0.7140000  30.0630000  35.2714776   1.0956050  29.9042740
  33.2780000  -2.7720000  30.8620000  33.6020000  -3.1940000  31.9710000
  32.9080000  -3.5630000  29.8710000  32.5683788  -3.1448602  29.0166488
  32.8350000  -5.0180000  30.0080000  32.3082120  -5.4378707  29.1510857
  34.2380000  -5.6390000  30.0740000  34.8911797  -5.0521696  30.7198216
  34.1393112  -6.6468443  30.4772499  34.8600000  -5.7260000  28.7180000
  34.2240000  -6.1810000  27.7550000  36.1010000  -5.2580000  28.6060000
  36.5712417  -5.2911367  27.7127618  36.5667422  -4.8718881  29.4147661
  31.9640000  -5.4920000  31.1760000  32.0240000  -6.6980000  31.5050000
  31.1290000  -4.5880000  31.7490000  31.1281591  -3.6205583  31.4589048
  30.2150000  -4.9910000  32.7950000  30.7221769  -5.7172121  33.4302061
  29.9600181  -4.1097075  33.3835635  28.9320000  -5.6150000  32.2540000
  28.7270000  -5.7280000  31.0290000  28.0300000  -5.9970000  33.1290000
  28.1460000  -5.9090000  34.5960000  28.0221728  -4.8738286  34.9140994
  29.1249368  -6.2706226  34.9106601  27.0470000  -6.7810000  35.0610000
  26.6648439  -6.3687583  35.9948696  27.4605878  -7.7726485  35.2445204
  26.0290000  -6.8300000  34.0560000  25.3256229  -6.0234660  34.2630329
  25.4898439  -7.7755082  33.9974796  26.7600000  -6.5590000  32.7280000
  26.9443838  -7.4581972  32.1401690  25.9610000  -5.5620000  31.8940000
  25.9950000  -4.3580000  32.1260000  25.2160000  -6.1210000  30.9710000
  25.3333927  -7.1036725  30.7693242  24.2140000  -5.3780000  30.2220000
  24.4002843  -4.3133851  30.3633947  24.2740000  -5.6960000  28.6970000
  24.0067619  -6.7418479  28.5457216  23.3050000  -4.8030000  27.9140000
  23.5719057  -3.7569435  28.0644262  23.3651805  -5.0437860  26.8526325
  22.2878619  -4.9723415  28.2673487  25.7090000  -5.4320000  28.1380000
  26.4252190  -6.0666911  28.6598233  25.7318409  -5.6593801  27.0722251
  25.9724236  -4.3854988  28.2914410  22.8170000  -5.7400000  30.7190000
  22.4130000  -6.9010000  30.7350000  22.0850000  -4.7190000  31.1800000
  22.5197216  -3.8157458  31.3034840  20.6910000  -4.8690000  31.5560000
  20.5142201  -5.8716095  31.9453871  20.3360000  -3.8660000  32.6270000
  21.0233894  -4.0152595  33.4596564  20.4836941  -2.8703980  32.2085945
  18.9180000  -3.9990000  33.1170000  18.2494139  -3.8713635  32.2656468
  18.7922399  -4.9997584  33.5302421  18.5810000  -2.9530000  34.1950000
  18.9222534  -3.3499961  35.1510540  19.1411551  -2.0487718  33.9568887
  17.0930000  -2.6210000  34.2840000  16.9611549  -1.8708804  35.0637679
  16.7823844  -2.2060380  33.3251342  16.2750000  -3.7980000  34.5950000
  16.5623754  -4.1824115  35.4836748  15.3026640  -3.5290268  34.6431266
  16.3966967  -4.4930292  33.8723498  19.8450000  -4.6850000  30.3230000
  20.0670000  -3.7410000  29.5490000  18.8980000  -5.5800000  30.1200000
  18.7662167  -6.2769358  30.8390362  18.0360000  -5.6200000  28.9610000
  18.1629762  -4.7498562  28.3169301  18.2640000  -6.9020000  28.1140000
  18.0250534  -7.7844181  28.7075841  17.3440000  -6.8510000  26.8750000
  17.5826830  -5.9690339  26.2806372  17.4953644  -7.7465178  26.2723084
  16.3035693  -6.8013929  27.1961615  19.6990000  -7.0510000  27.7510000
  20.2986233  -7.1201337  28.6586203  19.8323043  -7.9559903  27.1582756
  20.0189719  -6.1861981  27.1697630  16.6000000  -5.6150000  29.5070000
  16.2170000  -6.5280000  30.2590000  15.7870000  -4.6180000  29.1730000
  16.0725944  -3.8670940  28.5608927  14.4530000  -4.5600000  29.7640000
  14.0626394  -5.5729221  29.8625221  14.4680000  -3.9170000  31.1220000
  13.4859764  -4.1352022  31.5416625  15.2403166  -4.3177099  31.7785506
  14.6160000  -2.4710000  31.1400000  13.5730000  -1.5450000  31.2580000
  12.5583323  -1.9371475  31.3270624  14.0850000  -0.2770000  31.2610000
  13.5463158   0.5648194  31.4068044  15.4390000  -0.3290000  31.0430000
  16.3680000   0.7010000  30.9360000  16.0043754   1.7246078  31.0260162
  17.6530000   0.3770000  30.7290000  18.4123177   1.1570609  30.6738495
  18.0460000  -0.9760000  30.5790000  19.0745588  -1.2346777  30.3275004
  17.1370000  -2.0100000  30.7470000  17.5232207  -3.0284450  30.7882811
  15.8010000  -1.7020000  30.9380000  13.4890000  -3.8360000  28.8780000
  13.8410000  -2.9280000  28.1120000  12.2360000  -4.1620000  29.0010000
  11.9585770  -4.8833547  29.6512178  11.1880000  -3.4980000  28.2050000
  10.9007287  -2.5498061  28.6594258  11.5308073  -3.3225192  27.1852995
   9.9890000  -4.4070000  28.1690000   9.7490000  -5.2380000  29.0240000
   9.1580000  -4.2060000  27.1890000   9.4241119  -3.5631377  26.4568717
   7.8760000  -4.9400000  27.0490000   7.8677607  -5.8300729  27.6781276
   6.7210000  -4.0000000  27.5020000   7.0105496  -3.5097753  28.4314838
   6.5569859  -3.2474548  26.7307185   5.5350000  -4.7280000  27.7060000
   4.8368106  -4.1307759  27.9843068   7.6280000  -5.2570000  25.5900000
   7.9830000  -4.4510000  24.6940000   7.0160000  -6.4020000  25.3680000
   6.7958622  -6.9979549  26.1531601   6.6060000  -6.8380000  24.0260000
   6.6707785  -6.0277206  23.2998111   7.4870000  -8.0340000  23.5500000
   7.3251860  -8.8989138  24.1933046   7.0830000  -8.3830000  22.1150000
   7.2449800  -7.5186578  21.4709692   7.6866968  -9.2182207  21.7599545
   6.0293021  -8.6609304  22.0910300   8.9690000  -7.6890000  23.6690000
   9.1727035  -6.8607874  22.9902735   9.1546693  -7.3713318  24.6950182
   9.9120000  -8.9010000  23.3160000   9.7272217  -9.2189465  22.2899070
  10.9528482  -8.5941692  23.4189036   9.7091856  -9.7294922  23.9946508
   5.1770000  -7.2980000  24.1210000   4.8310000  -8.0260000  25.0600000
   4.2980000  -6.8620000  23.2300000   4.6133165  -6.1683103  22.5670750
   2.9160000  -7.2460000  23.2070000   2.7147509  -7.9494155  24.0149632
   2.0080000  -6.0100000  23.3910000   0.9964042  -6.3996431  23.5048046
   2.3251061  -5.5456033  24.3247449   2.0280000  -5.0580000  22.3670000
   3.0589306  -4.7923779  22.1330602   1.5476113  -5.4657041  21.4775585
   1.2800000  -3.8230000  22.8230000   0.2144652  -4.0506925  22.7931558
   1.5779838  -3.6153324  23.8507058   1.5620000  -2.6050000  21.9580000
   2.6323254  -2.4027574  21.9980260   1.2760779  -2.8445368  20.9338077
   0.8120000  -1.4010000  22.4140000   1.0771167  -1.1786150  23.3628718
   1.0303402  -0.6202417  21.8116346  -0.1798228  -1.5880467  22.3765809
   2.5650000  -8.0010000  21.9380000   3.3280000  -8.0290000  20.9940000
   1.3820000  -8.6100000  21.9300000   0.8063957  -8.5695749  22.7589420
   0.8770000  -9.3360000  20.7740000  -0.2104841  -9.3143509  20.8447725
   1.1944855  -8.7771763  19.8936487   1.3310000 -10.7660000  20.6370000
   1.1320000 -11.3720000  19.5780000   1.9450000 -11.3180000  21.7060000
   1.9819501 -10.7823724  22.5614748   2.5090000 -12.6500000  21.7060000
   2.8666517 -12.9204875  20.7125107   3.6870000 -12.6700000  22.6690000
   3.2934909 -12.1760204  23.5573884   3.9489345 -13.6996794  22.9124145
   4.9710000 -11.9060000  22.1690000   4.6777056 -10.9480887  21.7394826
   5.9080000 -11.6710000  23.3300000   6.2021177 -12.6285421  23.7597753
   6.7948988 -11.1424168  22.9805561   5.4041717 -11.0722020  24.0887479
   5.6790000 -12.6310000  21.0330000   4.9996599 -12.7322098  20.1866236
   6.5561824 -12.0603886  20.7279510   5.9888230 -13.6202575  21.3698653
   1.4740000 -13.6930000  22.2140000   0.6280000 -13.3690000  23.0450000
   1.6160000 -14.9360000  21.7830000   2.1851511 -15.1513229  20.9768968
   0.9110000 -16.0200000  22.4350000  -0.1367698 -15.7348912  22.5298188
   0.9930000 -17.3180000  21.6350000   0.5175671 -18.1034841  22.2224340
   0.2920000 -17.2130000  20.2420000   0.7672240 -16.4279787  19.6537795
   0.3812981 -18.1641202  19.7171235  -0.7620887 -16.9735687  20.3822508
   2.3500000 -17.6650000  21.3730000   2.3799472 -18.4821970  20.8701158
   1.4950000 -16.2300000  23.8480000   2.7070000 -16.1080000  24.1100000
   0.6210000 -16.6350000  24.7660000  -0.3557885 -16.7373725  24.5304085
   1.0430000 -16.9220000  26.1620000   1.4131226 -16.0220735  26.6531627
  -0.1820000 -17.4280000  26.9270000  -0.9737924 -16.6948821  26.7730451
  -0.4697997 -18.3744057  26.4691926   0.0350000 -17.6310000  28.4090000
   0.8641804 -18.3234163  28.5543285   0.3008697 -16.6558391  28.8170120
  -1.1650000 -18.1460000  29.1050000  -1.9100000 -18.9720000  28.5050000
  -1.3920000 -17.7600000  30.3100000   2.1560000 -17.9610000  26.1520000
   2.0930000 -18.9770000  25.4400000   3.1710000 -17.7540000  26.9770000
   3.1609084 -16.8996252  27.5155547   4.2970000 -18.6760000  27.1570000
   4.4127433 -18.8742122  28.2225584   4.0666081 -19.6063153  26.6378350
   5.5810000 -18.1250000  26.6220000   5.7630000 -16.9360000  26.4220000
   6.5470000 -19.0340000  26.4950000   6.3183468 -20.0089191  26.6267183
   7.9440000 -18.6790000  26.1970000   8.2071705 -17.7471737  26.6975400
   8.8870000 -19.7870000  26.6940000   8.3403112 -20.7077451  26.4903850
   9.8041341 -19.7718190  26.1051583   9.2450000 -19.7180000  28.2220000
   9.6890527 -18.7439266  28.4271808   8.0140000 -19.9090000  29.0980000
   7.5696346 -20.8831154  28.8937029   8.3024674 -19.8547689  30.1477363
   7.2875669 -19.1260164  28.8804407  10.2800000 -20.7360000  28.4960000
  11.1639138 -20.5276098  27.8931987  10.5466434 -20.7085709  29.5525274
   9.8941492 -21.7239651  28.2447172   8.1460000 -18.4760000  24.7190000
   7.7150000 -19.2810000  23.8970000   8.9600000 -17.4730000  24.3870000
   9.3465360 -16.9109652  25.1318531   9.3460000 -17.1540000  22.9950000
   9.0600398 -17.9681370  22.3290368   8.6360000 -15.8840000  22.5440000
   8.8033996 -15.1435175  23.3261524   8.9911299 -15.4917639  21.5910396
   7.1580000 -16.0430000  22.4160000   6.5260000 -16.3860000  21.2330000
   5.2240000 -16.4990000  21.4490000   4.5479643 -16.7483958  20.6311513
   4.9860000 -16.2630000  22.7400000   4.0846691 -16.2815736  23.1953653
   6.1790000 -15.9860000  23.3640000   6.1987232 -15.7752222  24.4332450
  10.8570000 -16.9170000  22.9390000  11.3960000 -16.1210000  23.7090000
  11.4810000 -17.5590000  21.9370000  11.0277198 -18.1709695  21.2735773
  12.9340000 -17.3440000  21.8100000  13.4165841 -17.6191124  22.7478299
  13.3168293 -17.9734499  21.0066732  13.2620000 -15.8590000  21.4890000
  12.5080000 -15.1290000  20.8710000  14.4580000 -15.4820000  21.9420000
  15.1200287 -16.1786510  22.2526362  14.8690000 -14.0450000  21.9840000
  14.3486678 -13.4486306  21.2345354  14.4710000 -13.5320000  23.3870000
  13.4606497 -13.8323425  23.6646435  15.1841050 -13.9665947  24.0875060
  14.5430000 -12.0250000  23.5720000  13.7630000 -11.1470000  22.7930000
  13.1627172 -11.5236344  21.9648050  13.7640000  -9.8090000  23.0850000
  13.1536433  -9.1388507  22.4796362  14.5070000  -9.3130000  24.1070000
  14.4499080  -8.2510424  24.3459277  15.3230000 -10.1350000  24.8350000
  15.9642358  -9.7277026  25.6166813  15.3300000 -11.4850000  24.5740000
  15.9631477 -12.1503068  25.1610185  16.3860000 -13.9850000  21.7880000
  17.1490000 -14.4350000  22.6350000  16.7960000 -13.4730000  20.6210000
  16.1602688 -13.0632331  19.9516449  18.2190000 -13.4660000  20.3150000
  18.7685316 -13.5277417  21.2543094  18.6640000 -14.6260000  19.4080000
  18.5525571 -14.3767917  18.3527394  19.7083855 -14.8568211  19.6179537
  17.8980000 -15.8800000  19.6320000  16.9390000 -16.2830000  18.7390000
  16.4240000 -17.4210000  19.2000000  15.6532260 -17.9228283  18.6150430
  16.9890000 -17.7450000  20.3630000  16.7850432 -18.5411118  20.9501179
  17.9280000 -16.7820000  20.6400000  18.5271467 -16.8502169  21.5480038
  18.6250000 -12.2160000  19.5620000  17.8420000 -11.5820000  18.8510000
  19.9090000 -11.9270000  19.6280000  20.4701814 -12.3564116  20.3496512
  20.5640000 -10.9750000  18.7030000  19.8679797 -10.2530642  18.2758424
  21.7180000 -10.2100000  19.3680000  22.4630693 -10.9281277  19.7104378
  22.3720000  -9.2240000  18.3750000  21.6276027  -8.5052268  18.0324526
  23.1860811  -8.6949685  18.8704776  22.7644735  -9.7750355  17.5203503
  21.2180000  -9.5100000  20.6550000  20.8359106 -10.2571711  21.3505897
  22.0431229  -8.9701523  21.1195819  20.4223993  -8.8090887  20.4023269
  21.0760000 -11.7900000  17.5270000  21.8470000 -12.7650000  17.6740000
  20.6780000 -11.3700000  16.3380000  19.9878881 -10.6325824  16.3302454
  21.1190000 -11.9310000  15.0430000  21.5604632 -12.9175269  15.1843300
  19.9030000 -12.0660000  14.1160000  19.3123537 -11.1502870  14.1425671
  20.2143034 -12.2673358  13.0909858  18.9800000 -13.1850000  14.5130000
  18.6440000 -14.2160000  13.6800000  17.8220000 -15.0370000  14.3340000
  17.4533579 -15.9318262  13.8325142  17.5970000 -14.5660000  15.5630000
  17.0069914 -14.9510512  16.2866886  18.3440000 -13.4080000  15.6810000
  18.3403351 -12.8501258  16.6174103  22.1890000 -11.0290000  14.4620000
  22.3200000  -9.8540000  14.7880000  22.9520000 -11.6010000  13.5350000
  22.6721635 -12.5017295  13.1737838  24.2020000 -11.0270000  13.0630000
  24.8873922 -10.8494685  13.8917456  24.8430000 -12.0150000  12.1070000
  24.9023057 -13.0019118  12.5658977  24.2660123 -12.0779616  11.1843836
  26.2160000 -11.5270000  11.8010000  26.1149591 -10.5611370  11.3060250
  26.7351624 -11.3956105  12.7503716  26.9900000 -12.4420000  10.9400000
  26.4550000 -13.4980000  10.4990000  28.2020000 -12.0760000  10.6970000
  24.0250000  -9.6660000  12.3970000  24.8130000  -8.7620000  12.6510000
  23.0830000  -9.5500000  11.4820000  22.4084159 -10.2840353  11.3200499
  23.0330000  -8.3400000  10.6130000  23.9562419  -7.7728690  10.7316845
  22.8740000  -8.7190000   9.1220000  21.8897854  -9.0999185   8.8493796
  23.0810009  -7.8106735   8.5561435  23.8620000  -9.7340000   8.6730000
  25.2020000  -9.5070000   8.7690000  25.6069613  -8.5541440   9.1098397
  26.0850000 -10.5690000   8.4050000  27.1659913 -10.4380359   8.4540612
  25.5550000 -11.7700000   7.9880000  26.2493453 -12.5798298   7.7640353
  24.2450000 -11.9610000   7.8550000  23.8525404 -12.8867155   7.4341360
  23.4120000 -11.0030000   8.2440000  22.3366500 -11.1810634   8.2400246
  21.8990000  -7.4350000  11.0500000  20.7570000  -7.9050000  11.2970000
  22.1760000  -6.1440000  11.0270000  23.1305310  -5.8473139  10.8822682
  21.1430000  -5.1100000  11.2050000  20.3917426  -5.4913335  11.8965896
  21.6139185  -4.2249190  11.6327463  20.4800000  -4.7360000   9.9290000
  20.3510000  -3.5630000   9.5610000  20.0500000  -5.7690000   9.1930000
  20.1619822  -6.6884416   9.5957237  19.4600000  -5.6630000   7.8450000
  19.4716911  -4.6277975   7.5039452  20.2780000  -6.5040000   6.8750000
  21.3098998  -6.1748266   6.9971756  20.1964272  -7.5539856   7.1560270
  19.8670000  -6.3370000   5.4440000  18.6450000  -6.0900000   5.1920000
  20.7450000  -6.4910000   4.5530000  18.0430000  -6.1380000   7.9260000
  17.7870000  -7.3420000   8.2340000  17.0850000  -5.2410000   7.7540000
  17.4305413  -4.3078495   7.5809950  15.6290000  -5.4600000   7.7400000
  15.4202128  -6.4682817   8.0975964  14.8750000  -4.4510000   8.6380000
  15.3933181  -4.2765844   9.5808811  14.8290836  -3.5207630   8.0717397
  13.4350000  -4.9130000   8.9450000  12.4440000  -4.1800000   8.7890000
  13.3220000  -6.1890000   9.3180000  12.4122857  -6.5693046   9.5368337
  14.1466899  -6.7687977   9.3798218  15.0350000  -5.2660000   6.3700000
  13.8600000  -5.0560000   6.2280000  15.8520000  -5.3150000   5.3240000
  16.8450126  -5.4401177   5.4595392  15.3680000  -5.0100000   3.9750000
  14.8340190  -4.0613991   3.9191451  16.4890000  -4.9910000   2.9700000
  16.0384661  -4.9131767   1.9805239  17.5010000  -3.8070000   3.1790000
  17.9523136  -3.8844191   4.1681521  18.2811119  -3.8567550   2.4193626
  16.9724902  -2.8574402   3.0946548  17.1870000  -6.2360000   2.9540000
  17.8948493  -6.1976932   2.3066344  14.2250000  -5.8700000   3.5140000
  13.3040000  -5.3350000   2.8100000  14.2200000  -7.1440000   3.8630000
  15.0549225  -7.5466308   4.2641138  13.0780000  -8.0470000   3.5580000
  12.3295657  -7.4276341   3.0637014  13.4650000  -9.1620000   2.6320000
  14.2073263  -9.7962706   3.1165127  12.5836989  -9.7555866   2.3889700
  13.8855662  -8.7454445   1.7167378  12.4450000  -8.5500000   4.8270000
  11.9370000  -9.6770000   4.9050000  12.3950000  -7.6820000   5.8300000
  12.7155621  -6.7317080   5.7104823  11.8730000  -8.0790000   7.1390000
  11.6123116  -7.1932771   7.7183408  10.9881490  -8.7026391   7.0116724
  12.9360000  -8.8730000   7.8960000  14.1470000  -8.8120000   7.6500000
  12.4570000  -9.6050000   8.9090000  11.4640657  -9.7303561   9.0448921
  13.3630000 -10.1940000   9.8760000  14.0514779  -9.4392675  10.2561002
  12.5650000 -10.7600000  11.0470000  11.8712050 -11.5299810  10.7095435
  13.2282107 -11.1762985  11.8052527  11.5460000  -9.4960000  11.9010000
  11.0300292 -10.3220926  12.8066729  14.2510000 -11.2900000   9.3040000
  15.3470000 -11.5480000   9.8630000  13.9130000 -11.9160000   8.1920000
  13.0038825 -11.7511647   7.7840367  14.7570000 -12.9260000   7.5980000
  15.0440264 -13.7022433   8.3073387  14.0030000 -13.6010000   6.3910000
  13.0243285 -13.9173199   6.7518935  13.8330000 -12.7050000   5.2300000
  14.8113285 -12.3886123   4.8682381  13.3063239 -13.2343164   4.4359373
  13.2556587 -11.8296093   5.5274369  14.7320000 -14.7750000   6.0190000
  14.2910939 -15.2056152   5.2829479  16.1160000 -12.3810000   7.1960000
  17.1370000 -13.0790000   7.2320000  16.1380000 -11.0920000   6.8220000
  15.2939235 -10.5375008   6.8348410  17.3710000 -10.4650000   6.3550000
  17.8304324 -11.0433171   5.5533951  16.9890000  -9.0230000   5.7890000
  16.6166490  -8.4058540   6.6066703  17.8784711  -8.5604212   5.3612593
  15.9630000  -9.1400000   4.7640000  15.7418087  -8.2669900   4.4315429
  18.4570000 -10.3150000   7.4290000  19.6100000 -10.0950000   7.1320000
  18.0910000 -10.5080000   8.6910000  17.1243855 -10.7058493   8.9068968
  19.0440000 -10.4100000   9.7990000  19.6460957  -9.5128757   9.6549583
  18.2810000 -10.2850000  11.1480000  17.6805606 -11.1800425  11.3107003
  18.9972291 -10.1756077  11.9623399  17.6295653  -9.4115977  11.1179904
  19.9720000 -11.5920000   9.8780000  20.9640000 -11.5150000  10.6100000
  19.7430000 -12.6580000   9.1230000  18.9202538 -12.7371285   8.5425462
  20.7000000 -13.7590000   9.1200000  20.4874133 -14.3885990   8.2559912
  21.7001837 -13.3365398   9.0237750  20.6420000 -14.6000000  10.3640000
  19.6030000 -14.6300000  11.0650000  21.7160000 -15.3120000  10.6510000
  23.0150000 -15.2510000   9.9140000  23.3768828 -14.2228568   9.9219129
  22.8517432 -15.5702574   8.8846697  23.9040000 -16.1720000  10.6560000
  24.4988006 -15.6182298  11.3823952  24.5673299 -16.6930837   9.9656619
  22.9310000 -17.1750000  11.3600000  23.4114509 -17.5607635  12.2591398
  22.5770573 -18.0076161  10.7520735  21.7540000 -16.2710000  11.7450000
  20.8009575 -16.7987798  11.7804502  21.9950000 -15.5790000  13.0660000
  22.1450000 -14.3520000  13.1490000  22.0110000 -16.3480000  14.1670000
  21.8175149 -17.3386221  14.1305222  22.3460000 -15.7390000  15.4920000
  21.6197886 -14.9643982  15.7383906  22.3150000 -16.8180000  16.6030000
  23.0004862 -17.6300832  16.3606596  22.5921791 -16.3836965  17.5635479
  20.9490000 -17.4450000  16.7890000  20.7000000 -18.3700000  17.7650000
  19.4050000 -18.7570000  17.6330000  19.0094168 -19.5112951  18.3131851
  18.8330000 -18.1010000  16.6380000  17.8832287 -18.1806124  16.3037900
  19.7800000 -17.2640000  16.1170000  19.5248382 -16.5985087  15.2923091
  23.7520000 -15.1490000  15.4370000  24.6370000 -15.6660000  14.7680000
  23.9160000 -14.0620000  16.1840000  23.1397422 -13.6196350  16.6549951
  25.2530000 -13.4340000  16.2920000  25.6843613 -13.2477401  15.3084687
  25.0710000 -12.0920000  17.0090000  24.4155814 -11.4363879  16.4356776
  24.6373836 -12.2677919  17.9934664  26.3700000 -11.3220000  17.2350000
  27.3150000 -11.1850000  16.2070000  27.1213510 -11.6216534  15.2272379
  28.4990000 -10.4920000  16.4380000  29.2750780 -10.4365258  15.6746349
  28.6890000  -9.8490000  17.6950000  29.5839779  -9.2443004  17.8414681
  27.7960000  -9.9750000  18.6860000  27.9549756  -9.5083853  19.6581613
  26.6430000 -10.7230000  18.4520000  25.9091601 -10.8562844  19.2468674
  26.1820000 -14.3840000  17.0320000  25.9670000 -14.7340000  18.1940000
  27.2300000 -14.8190000  16.3360000  27.4452894 -14.3972752  15.4438689
  28.0820000 -15.9150000  16.8110000  28.0470376 -15.9841160  17.8982441
  27.5700000 -17.2350000  16.2190000  26.5077258 -17.3287842  16.4445599
  27.7081945 -17.1806243  15.1391641  28.2920000 -18.4770000  16.7420000
  28.9030000 -18.4420000  17.8360000  28.2180000 -19.5840000  15.9860000
  28.6785442 -20.4303439  16.2888216  27.7021214 -19.5654084  15.1178846
  29.5400000 -15.6910000  16.3990000  30.1410000 -16.4730000  15.6720000
  30.1530000 -14.6200000  16.9220000  29.6230000 -13.6160000  17.8720000
  29.0916233 -14.1318714  18.6717598  28.9330019 -12.9584328  17.3432213
  30.8540000 -12.8830000  18.3690000  31.3072271 -13.3928896  19.2191158
  30.6221805 -11.8541772  18.6444719  31.7770000 -12.9280000  17.1240000
  32.8133744 -12.8543935  17.4535590  31.5672053 -12.1346727  16.4065618
  31.5350000 -14.2780000  16.4860000  31.5443126 -14.2397226  15.3967129
  32.5580000 -15.2840000  16.9630000  33.6360000 -15.3800000  16.3820000
  32.2540000 -16.0830000  17.9940000  31.3979133 -15.9076098  18.5004121
  33.1880000 -17.1000000  18.5260000  34.2055570 -16.8917772  18.1953640
  33.1540000 -17.0650000  20.0560000  32.1006810 -17.1917700  20.3060954
  33.7175311 -17.9279667  20.4107129  33.6800000 -15.8160000  20.7160000
  33.2444367 -14.9667967  20.1894650  33.3650000 -15.7160000  22.1580000
  33.8006575 -16.5646757  22.6853053  33.7782291 -14.7897793  22.5573215
  32.2836931 -15.7197620  22.2953376  35.2240000 -15.7630000  20.5320000
  35.4633804 -15.7470825  19.4687300  35.6161981 -14.8630653  21.0057081
  35.6756734 -16.6416685  20.9924691  32.9660000 -18.4860000  17.9480000
  33.5740000 -19.4350000  18.4190000  32.0500000 -18.6650000  16.9930000
  31.4463365 -17.8999896  16.7275782  31.8560000 -19.9850000  16.3230000
  31.0201924 -19.9461282  15.6244201  33.1340000 -20.3240000  15.5410000
  33.9717129 -20.4067075  16.2334564  32.9994562 -21.2716325  15.0194728
  33.3960000 -19.3160000  14.6130000  34.1948848 -19.5296972  14.1254382
  31.5410000 -21.0870000  17.3150000  32.1810000 -22.1580000  17.2870000
  30.6010000 -20.7930000  18.2230000  30.1860537 -19.8724586  18.2458571
  30.1240000 -21.7980000  19.1880000  30.8520766 -22.6025639  19.2913473
  29.9330000 -21.1330000  20.5530000  29.1564067 -20.3826165  20.4049234
  29.5582015 -21.9183911  21.2093436  31.1520000 -20.4820000  21.1870000
  31.4353776 -19.6296812  20.5694640  30.8665921 -20.1322612  22.1791326
  32.2840000 -21.3980000  21.3010000  32.4808632 -21.7674922  20.2946107
  33.1293222 -20.7987690  21.6393077  32.1320000 -22.5400000  22.1970000
  31.9594767 -23.4202026  21.7326957  32.2220000 -22.5290000  23.5440000
  32.3930000 -21.4190000  24.2430000  32.4615205 -20.5311930  23.7663411
  32.4542501 -21.4644493  25.2501159  32.1140000 -23.6580000  24.2220000
  31.9642203 -24.5269360  23.7294389  32.1817259 -23.6468105  25.2296640
  28.7630000 -22.3730000  18.7440000  28.1350000 -21.8990000  17.8160000
  28.3460000 -23.4260000  19.4480000  28.9847626 -23.8805311  20.0847756
  27.0150000 -23.9770000  19.3010000  26.7274426 -23.9884881  18.2496780
  26.9870000 -25.3920000  19.8240000  27.3477928 -25.3550824  20.8518934
  25.9444322 -25.7099593  19.8166272  27.8320000 -26.3910000  19.0210000
  27.3748490 -26.4921453  18.0366812  28.8306317 -25.9671043  18.9154105
  27.9300000 -27.7690000  19.6820000  28.5384055 -28.4027144  19.0367498
  28.4311947 -27.6406259  20.6413870  26.5930000 -28.4140000  19.8990000
  26.0510492 -27.8289598  20.6420464  26.0495442 -28.3936343  18.9543624
  26.7180000 -29.8340000  20.3740000  27.2211744 -29.8530534  21.2495297
  25.7970637 -30.2270238  20.5063201  27.2197818 -30.3763806  19.6854236
  25.9850000 -23.1040000  20.0470000  26.3120000 -22.3980000  20.9930000
  24.7510000 -23.1990000  19.5940000  24.5567526 -23.7563590  18.7744158
  23.6350000 -22.5360000  20.2600000  23.8166687 -21.4643559  20.3416978
  22.3650000 -22.7560000  19.4270000  22.4785649 -22.4036843  18.4017801
  22.1136801 -23.8166107  19.4204226  21.1930000 -22.0460000  19.9920000
  20.9650000 -20.6700000  19.8910000  19.8000000 -20.4790000  20.5800000
  19.4135131 -19.4607861  20.6243536  19.3300000 -21.6150000  21.0920000
  18.5018759 -21.7464352  21.6550588  20.1810000 -22.6030000  20.7170000
  19.9812705 -23.6341304  21.0085125  23.3900000 -23.1110000  21.6490000
  23.4490000 -24.3400000  21.8590000  23.1110000 -22.2110000  22.5980000
  23.1389269 -21.2252708  22.3796942  22.7640000 -22.6070000  23.9520000
  22.2870963 -23.5869198  23.9315255  23.6688221 -22.6564415  24.5577655
  21.7990000 -21.5960000  24.5790000  21.2520000 -20.6980000  23.9150000
  21.5660000 -21.7970000  25.8710000  21.8779353 -22.6488659  26.3149822
  20.8830000 -20.8400000  26.6600000  20.1396063 -20.3446154  26.0354529
  20.3823355 -21.3597624  27.4768730  21.8120000 -19.8000000  27.2360000
  23.0300000 -19.9650000  27.2960000  21.2520000 -18.7010000  27.7730000
  19.8200000 -18.3570000  27.7520000  19.2234209 -19.2152210  28.0612740
  19.5224605 -18.0507811  26.7491046  19.7570000 -17.2100000  28.7520000
  19.6383439 -17.5897253  29.7668047  18.9307026 -16.5392088  28.5166850
  21.0850000 -16.5120000  28.5760000  21.3755858 -15.9958798  29.4910294
  21.0445634 -15.7976397  27.7537143  22.0910000 -17.6120000  28.2600000
  22.7256220 -17.2898785  27.4344148  22.9550000 -18.0060000  29.4340000
  24.0050000 -17.3910000  29.6380000  22.5120000 -18.9960000  30.2280000
  21.6083476 -19.4131784  30.0563206  23.2680000 -19.4400000  31.3920000
  23.7897235 -18.5968862  31.8448387  22.3290000 -20.0330000  32.4160000
  21.7319931 -20.8072392  31.9340916  22.9214028 -20.4769734  33.2160291
  21.4460000 -19.0150000  32.9730000  22.0428930 -18.1703797  33.3171457
  20.7528128 -18.6791077  32.2017867  20.6700000 -19.5860000  34.1310000
  21.3519444 -20.1443885  34.7722902  20.2275367 -18.7669553  34.6980022
  19.5970000 -20.4880000  33.6470000  19.0169041 -19.9576156  32.8918300
  20.0623172 -21.3650886  33.1972282  18.6600000 -20.9340000  34.7990000
  18.2283947 -20.1214474  35.2156231  17.9440077 -21.5452053  34.4330996
  19.1972601 -21.4258594  35.4986606  24.3510000 -20.4180000  31.0520000
  25.0520000 -20.8290000  31.9700000  24.4640000 -20.8620000  29.8160000
  23.8571583 -20.4601971  29.1157166  25.4110000 -21.8800000  29.4030000
  25.5935588 -22.5686745  30.2279235  24.8690000 -22.6700000  28.2210000
  24.6392270 -21.9536948  27.4321968  25.6501291 -23.3486961  27.8784960
  23.6470000 -23.4490000  28.5540000  23.3940000 -23.8110000  29.7170000
  22.8810000 -23.7420000  27.6230000  26.7190000 -21.2740000  28.9770000
  26.7410000 -20.1950000  28.3490000  27.8160000 -21.9710000  29.2380000
  27.8002471 -22.7584313  29.8702999  29.0870000 -21.5540000  28.6960000
  29.2279636 -20.4851374  28.8565029  30.2160000 -22.3000000  29.3810000
  30.0021245 -22.3240561  30.4495400  30.2305649 -23.3176994  28.9909028
  31.5660000 -21.6520000  29.1510000  31.8877904 -21.8758159  28.1339168
  31.4062392 -20.5786144  29.2530737  32.6430000 -22.1020000  30.1360000
  32.6650000 -23.2830000  30.5430000  33.5060000 -21.2660000  30.4910000
  29.1070000 -21.7400000  27.1800000  29.6070000 -20.8670000  26.4250000
  28.5520000 -22.8250000  26.6910000  28.1997493 -23.5393903  27.3120195
  28.4690000 -23.0550000  25.2600000  29.3263712 -22.5911458  24.7722981
  28.4650000 -24.5510000  24.9250000  29.3505145 -24.9795822  25.3943406
  27.5709120 -24.9725808  25.3843216  28.4720000 -24.8710000  23.4580000
  28.0751992 -25.8638252  23.2459904  27.7866562 -24.1163584  23.0720995
  29.8260000 -24.7140000  22.7890000  30.7740000 -25.0230000  23.4890000
  30.0280000 -24.4310000  21.5890000  27.2040000 -22.3850000  24.7340000
  26.0800000 -22.8790000  24.8930000  27.4050000 -21.2230000  24.1040000
  28.3417069 -20.8583654  24.0054046  26.2740000 -20.4360000  23.5260000
  25.5571040 -21.1244873  23.0786249  25.5450000 -19.5880000  24.5920000
  24.7970644 -18.9826126  24.0799476  25.0486371 -20.2734998  25.2788872
  26.5030000 -18.6620000  25.3880000  27.1562327 -19.3152722  25.9664663
  27.0938204 -18.1191964  24.6501670  25.8250000 -17.6750000  26.3170000
  24.9790194 -18.1642921  26.7997102  26.5385052 -17.3523654  27.0752326
  25.3280000 -16.4720000  25.5850000  25.2658657 -16.4756555  24.5769200
  24.8950000 -15.4060000  26.2410000  24.7850000 -15.4310000  27.5500000
  25.0320736 -16.2678978  28.0585831  24.4538759 -14.6132055  28.0415979
  24.6330000 -14.2760000  25.5820000  24.7658539 -14.2360254  24.5815741
  24.3029974 -13.4656681  26.0865387  26.8400000 -19.5040000  22.4720000
  28.0330000 -19.2230000  22.4610000  25.9740000 -19.0150000  21.6050000
  25.0583508 -19.4363509  21.5405842  26.2680000 -17.8790000  20.7570000
  27.2262197 -18.0175305  20.2562771  25.1750000 -17.7430000  19.6930000
  24.2427190 -17.6115532  20.2422478  25.3062253 -16.9141635  18.9973637
  25.0110000 -18.9870000  18.8560000  23.7830000 -19.3900000  18.3280000
  24.0270000 -20.4300000  17.5180000  23.2055136 -20.8934800  16.9716985
  25.3220000 -20.7110000  17.5440000  25.7717169 -21.4522047  17.0258590
  25.9620000 -19.8400000  18.3840000  27.0355091 -19.9315868  18.5492007
  26.2830000 -16.6170000  21.5930000  25.4950000 -16.4830000  22.5510000
  27.0260000 -15.5760000  21.1920000  27.7011538 -15.6870147  20.4490717
  26.9660000 -14.2830000  21.8930000  27.1980439 -14.4036869  22.9511538
  27.8980000 -13.2510000  21.3100000  27.7753310 -13.2539448  20.2269290
  27.6110000 -11.8480000  21.8520000  27.7339262 -11.8441534  22.9350399
  28.3054747 -11.1363517  21.4055001  26.5890004 -11.5633268  21.6018409
  29.3690000 -13.6560000  21.5990000  29.5747646 -14.6262809  21.1469846
  30.0416006 -12.9092187  21.1770691  29.5246411 -13.7171895  22.6760945
  25.5150000 -13.7960000  21.9180000  25.0450000 -13.2460000  22.9290000
  24.7730000 -13.9490000  20.8210000  25.1462683 -14.4292724  20.0147069
  23.4080000 -13.4320000  20.7490000  23.4448986 -12.4187854  21.1491672
  23.1521972 -13.3947812  19.6900953  22.3450000 -14.2120000  21.4840000
  21.1670000 -13.8400000  21.4060000  22.6820000 -15.3190000  22.2120000
  23.6565802 -15.5629345  22.3158685  21.6800000 -16.2100000  22.7900000
  20.8193277 -16.2865897  22.1255631  22.2720000 -17.6020000  22.9830000
  23.2316677 -17.4960559  23.4888785  21.5816408 -18.1486767  23.6253775
  22.4630000 -18.3520000  21.7060000  21.8850000 -17.9390000  20.6410000
  23.1970000 -19.3610000  21.6860000  21.1420000 -15.6460000  24.1180000
  21.7550000 -15.8590000  25.1530000  19.9740000 -15.0430000  24.0880000
  19.5526715 -14.8828277  23.1841601  19.3350000 -14.4490000  25.2690000
  20.0299723 -14.4942347  26.1074906  18.9340000 -12.9690000  25.0370000
  18.2731185 -12.9919237  24.1705074  18.3856168 -12.5954482  25.9017745
  20.1360000 -12.0350000  24.7450000  20.6818938 -12.4096863  23.8791414
  19.6460000 -10.6510000  24.4640000  19.1003652 -10.2754383  25.3296413
  20.4951400  -9.9989047  24.2594672  18.9846871 -10.6680366  23.5977002
  21.1110000 -12.0340000  25.8750000  21.4882554 -13.0446709  26.0309554
  21.9416875 -11.3691672  25.6382366  20.6161349 -11.6874311  26.7822472
  18.1620000 -15.2990000  25.7930000  17.4350000 -14.8220000  26.6480000
  18.0220000 -16.5220000  25.2880000  18.5768385 -16.8363670  24.5047842
  17.0410000 -17.4560000  25.8690000  17.3127613 -18.4675131  25.5671951
  17.0940509 -17.3747118  26.9546690  15.6270000 -17.1740000  25.4240000
  15.3310000 -17.1020000  24.1990000  14.7120000 -17.1150000  26.3840000
  15.0242982 -17.1787073  27.3423896  13.3110000 -16.9210000  26.1360000
  13.1407942 -16.7648934  25.0707489  12.5140000 -18.1570000  26.5850000
  12.8198819 -18.4537863  27.5882215  11.4511676 -17.9151626  26.5864030
  12.7430000 -19.3160000  25.6490000  12.3030000 -19.2740000  24.5000000
  13.4490000 -20.3620000  26.1350000  13.6290819 -21.1628267  25.5464875
  13.7930183 -20.3376706  27.0842946  12.7900000 -15.7630000  26.9270000
  13.3170000 -15.4100000  27.9990000  11.7600000 -15.1030000  26.4230000
  11.5787263 -15.2245478  25.4368635  10.9250000 -14.1590000  27.1720000
  11.2440566 -14.0087428  28.2033704  10.8370000 -12.8070000  26.4900000
  10.1536218 -12.1616176  27.0418832  12.2320000 -12.1670000  26.4590000
  12.9158715 -12.8116309  25.9068481  12.1753963 -11.1945743  25.9698326
  12.5966542 -12.0397213  27.4782787  10.1950000 -12.8580000  25.1180000
   9.1793376 -13.2438083  25.2056577  10.1666402 -11.8550745  24.6920471
  10.7766568 -13.5118510  24.4681884   9.5490000 -14.8210000  27.3480000
   9.1690000 -15.6550000  26.5290000   8.8440000 -14.4500000  28.4100000
   9.1953217 -13.7328959  29.0284126   7.5820000 -15.0980000  28.7490000
   7.3599486 -15.8833907  28.0265363   7.6370000 -15.7200000  30.1460000
   7.9150823 -14.9417731  30.8567273   6.2970000 -16.3220000  30.5510000
   6.0184580 -17.1006806  29.8409503   6.3784934 -16.7531275  31.5487911
   5.5341721 -15.5434189  30.5533682   8.6420000 -16.7490000  30.1500000
   8.6874448 -17.1485058  31.0217398   6.4450000 -14.0990000  28.6590000
   6.4000000 -13.1020000  29.3760000   5.4780000 -14.4270000  27.7940000
   5.5946943 -15.2417380  27.2086080   4.2570000 -13.6430000  27.6520000
   4.4230855 -12.6039336  27.9363516   3.7780000 -13.6820000  26.1950000
   3.5986527 -14.7154492  25.8984915   2.8538529 -13.1118174  26.1004266
   4.5406991 -13.2464819  25.5494666   3.1800000 -14.2030000  28.5530000
   2.9690000 -15.4230000  28.6850000   2.4170000 -13.2850000  29.1450000
   2.6774852 -12.3140920  29.0471004   1.3020000 -13.6110000  30.0000000
   1.4973596 -14.5544399  30.5097597   1.0810000 -12.5250000  31.0510000
   0.3354232 -12.9253357  31.7379831   2.0202498 -12.3735569  31.5829538
   0.6080000 -11.2330000  30.5090000   0.6110000 -10.2500000  31.3470000
   0.2050000 -11.0900000  29.3400000   0.0780000 -13.8590000  29.1700000
   0.0890000 -13.9050000  27.9260000  -1.0520000 -14.0750000  29.8480000
  -1.0369441 -14.0821480  30.8578622  -2.2820000 -14.4100000  29.1820000
  -2.1438399 -15.2707108  28.5276394  -3.3440000 -14.7670000  30.2520000
  -2.8809861 -15.5142393  30.8964771  -3.5154063 -13.8532315  30.8209877
  -4.6250000 -15.2790000  29.7520000  -5.2895484 -15.3478075  30.6132444
  -5.0081484 -14.5319523  29.0568604  -4.5560000 -16.6210000  29.0610000
  -3.8857434 -16.5715972  28.2028541  -4.2037869 -17.3860694  29.7528918
  -5.9670000 -16.9740000  28.5860000  -6.6350686 -17.1250348  29.4339230
  -6.3674639 -16.1895800  27.9438059  -5.8540000 -18.2520000  27.8040000
  -5.4833432 -18.9791009  28.3990105  -6.7673705 -18.5237818  27.4693525
  -5.2353312 -18.1121436  27.0180050  -2.7650000 -13.3090000  28.2310000
  -3.3980000 -13.6170000  27.2300000  -2.4660000 -12.0590000  28.5330000
  -1.9541461 -11.8777898  29.3846266  -2.8110000 -10.9250000  27.6770000
  -3.8316410 -11.0194544  27.3062313  -2.7070000  -9.6450000  28.4950000
  -1.7900225  -9.7790461  29.0688320  -2.6065785  -8.7727317  27.8491180
  -3.8330000  -9.4460000  29.4130000  -4.9560000  -9.8260000  29.0080000
  -3.6000000  -8.8410000  30.4680000  -1.8730000 -10.7860000  26.5140000
  -2.0670000  -9.8850000  25.6970000  -0.8400000 -11.6150000  26.3980000
  -0.6909328 -12.3232617  27.1024457   0.0790000 -11.5430000  25.3030000
   0.4670339 -12.5476720  25.1351814  -0.4818612 -11.2195227  24.4261326
   1.2360000 -10.6000000  25.5210000   1.9640000 -10.2840000  24.5620000
   1.4840000 -10.1880000  26.7500000   0.9116217 -10.5498227  27.4993776
   2.5300000  -9.2080000  27.0820000   2.9872499  -8.7621056  26.1987107
   1.9410000  -8.0830000  27.9520000   1.5324891  -8.5169063  28.8646573
   3.0040000  -7.0820000  28.3060000   3.4126905  -6.6472955  27.3938021
   2.5707693  -6.2933998  28.9212409   3.8008396  -7.5780538  28.8601470
   0.7560000  -7.4130000  27.2210000  -0.0173155  -8.1556897  27.0247932
   0.3461264  -6.6184763  27.8445666   1.1020606  -6.9915228  26.2772310
   3.6780000  -9.8830000  27.8200000   3.4600000 -10.5720000  28.8400000
   4.8890000  -9.6880000  27.3290000   4.9650790  -9.2093745  26.4428686
   6.1310000 -10.1360000  27.9920000   5.9283278 -10.8264781  28.8106960
   7.0380000 -10.8160000  27.0030000   7.2574080 -10.1337871  26.1816927
   7.9672590 -11.0998904  27.4969476   6.5474341 -11.7077160  26.6127605
   6.8310000  -8.9020000  28.5870000   7.1940000  -7.9960000  27.8580000
   7.0330000  -8.9290000  29.8740000   6.5425933  -9.6260772  30.4159262
   7.8780000  -7.9850000  30.5740000   7.9115248  -7.0444261  30.0241855
   7.3480000  -7.7170000  31.9490000   7.0093628  -8.6336103  32.4319592
   8.1908634  -7.3046836  32.5036859   6.2110000  -6.7050000  31.9280000
   5.5260000  -6.7130000  32.9490000   6.0230000  -5.8650000  30.9790000
   9.2620000  -8.5740000  30.6030000   9.5280000  -9.5840000  31.2320000
  10.1490000  -7.9500000  29.8720000   9.8734163  -7.1039925  29.3940626
  11.5170000  -8.4430000  29.6800000  11.6240387  -9.5154162  29.8429892
  12.0250000  -8.1100000  28.2840000  11.9703473  -7.0319438  28.1326489
  13.4590000  -8.5700000  28.1230000  13.5143820  -9.6481022  28.2737626
  13.8091527  -8.3254288  27.1201648  14.0869615  -8.0679947  28.8590412
  11.0700000  -8.7130000  27.2300000  10.0719249  -8.2952502  27.3620349
  11.4338474  -8.4744988  26.2305842  11.0294449  -9.7953182  27.3526519
  12.3890000  -7.8260000  30.7250000  12.3950000  -6.6120000  30.9350000
  13.1630000  -8.6810000  31.3830000  13.1310202  -9.6722389  31.1918926
  14.1450000  -8.1890000  32.3750000  14.5088421  -7.2039801  32.0826749
  13.4900000  -8.0790000  33.7520000  12.6171437  -7.4315368  33.6682595
  13.1746837  -9.0744346  34.0647070  14.3740000  -7.5500000  34.7010000
  13.9336849  -7.4940192  35.5522277  15.2650000  -9.2380000  32.4670000
  15.1180000 -10.2790000  33.1540000  16.3720000  -8.9100000  31.8240000
  16.4327666  -7.9785509  31.4382418  17.5110000  -9.8260000  31.6230000
  17.5241037 -10.7027008  32.2705516  17.6270000 -10.2800000  30.1270000
  17.4174355  -9.4136520  29.4996051  18.9740000 -10.8250000  29.7880000
  19.1840941 -11.6917144  30.4147115  18.9928795 -11.1222983  28.7394973
  19.7304316 -10.0596859  29.9617953  16.4580000 -11.2060000  29.8060000
  16.6404741 -12.1442966  30.3298354  15.5592363 -10.7362424  30.2055636
  16.2660000 -11.4860000  28.3040000  17.1642443 -11.9562133  27.9038044
  15.4146500 -12.1521041  28.1639719  16.0830087 -10.5481581  27.7795321
  18.7680000  -9.0870000  32.0450000  18.8910000  -7.8500000  31.8200000
  19.7190000  -9.7550000  32.6760000  19.4982494 -10.6114589  33.1636952
  21.0860000  -9.2290000  32.7770000  21.1592332  -8.3084531  32.1979236
  21.4770000  -8.9220000  34.2490000  21.5273680  -9.9230941  34.6772207
  22.4858914  -8.5265308  34.1313464  20.7770000  -8.1230000  35.0640000
  20.3296244  -7.3303987  35.6637826  20.2435197  -9.0569213  35.2408866
  23.5390000  -8.4420000  35.8040000  23.2640000  -7.4490000  36.4920000
  24.3850000  -9.3020000  36.2110000  22.0080000 -10.2400000  32.1060000
  21.8960000 -11.4430000  32.3650000  22.9020000  -9.7450000  31.2560000
  22.9701204  -8.7507756  31.0917536  23.7780000 -10.6380000  30.4900000
  23.8928166 -11.5788323  31.0282852  23.2040000 -10.9340000  29.1080000
  22.1465818 -11.1658008  29.2354139  23.3077977 -10.0370470  28.4974253
  23.8910000 -12.0860000  28.4270000  23.4820000 -13.2490000  28.7720000
  24.8150000 -11.8790000  27.5800000  25.1300000 -10.0090000  30.3800000
  25.2300000  -8.8080000  30.0950000  26.1870000 -10.7920000  30.5710000
  26.0510783 -11.7474748  30.8688129  27.5590000 -10.2830000  30.4720000
  27.5426186  -9.2122889  30.2685090  28.3180000 -10.5220000  31.7930000
  28.2370634 -11.5781582  32.0500569  29.3660916 -10.2653926  31.6388679
  27.8000000  -9.7520000  32.8290000  28.2939124  -9.9246734  33.6338815
  28.3710000 -10.8300000  29.2990000  29.5380000 -10.5010000  29.1620000
  27.7460000 -11.5770000  28.4090000  26.8324885 -11.9304529  28.6553071
  28.3550000 -12.0450000  27.1820000  29.4410229 -12.0371858  27.2746950
  27.9030000 -13.4690000  26.8310000  26.8134032 -13.4971463  26.8217395
  28.4370000 -13.8950000  25.4570000  29.5266205 -13.8675460  25.4656278
  28.1013394 -14.9078202  25.2342274  28.0629111 -13.2126741  24.6937239
  28.3990000 -14.4280000  27.8900000  27.9883248 -14.1441886  28.8589680
  28.0791080 -15.4402488  27.6427732  29.4875632 -14.3917303  27.9326076
  28.1270000 -11.0310000  26.0820000  29.0770000 -10.6800000  25.3420000
  26.8950000 -10.5680000  25.8820000  26.0745202 -11.0331292  26.2433406
  26.7060000  -9.3740000  25.0300000  27.1951654  -9.4920703  24.0631103
  25.2150000  -9.0560000  24.8150000  25.1367013  -8.1432029  24.2244315
  24.4890000 -10.2170000  24.0740000  24.5664768 -11.1300911  24.6642225
  23.4382611  -9.9610212  23.9378995  24.9532745 -10.3738494  23.1003745
  24.4800000  -8.7340000  26.1280000  24.4618537  -9.6673342  26.6907243
  25.1086611  -8.0099851  26.6463504  23.0910000  -8.1950000  26.0130000
  22.4615945  -8.9187124  25.4951304  22.6884030  -8.0112085  27.0091102
  23.1084018  -7.2613638  25.4507541  27.4280000  -8.1780000  25.6230000
  27.7110000  -8.1170000  26.8180000  27.6760000  -7.1900000  24.7600000
  27.4753313  -7.3301733  23.7801108  28.2710000  -5.9340000  25.1660000
  28.0053768  -5.7267391  26.2026226  29.7850000  -5.9760000  25.0520000
  30.1590768  -6.8871161  25.5189403  30.0703217  -5.9639116  24.0000754
  30.3440000  -4.8430000  25.7080000  31.3008263  -4.8708611  25.6351510
  27.6780000  -4.8130000  24.2830000  27.1630000  -5.0700000  23.1940000
  27.8610000  -3.5780000  24.7590000  28.1469641  -3.4432446  25.7182522
  27.5280000  -2.3970000  23.9620000  26.9962190  -2.7053692  23.0618797
  26.6370000  -1.4270000  24.7500000  27.2700128  -1.1272543  25.5851925
  26.4266522  -0.5594312  24.1245576  25.3380000  -1.9930000  25.2800000
  25.5415281  -2.7724633  26.0142439  24.5660000  -0.8750000  25.9350000
  24.3616823  -0.0953152  25.2012121  23.6245402  -1.2623973  26.3244579
  25.1530808  -0.4581881  26.7533547  24.5010000  -2.6810000  24.2010000
  25.0692887  -3.5053291  23.7701533  23.5822394  -3.0659241  24.6435083
  24.2539797  -1.9628760  23.4190934  28.7920000  -1.7270000  23.4250000
  28.6870000  -0.6530000  22.8100000  29.9690000  -2.3700000  23.5440000
  30.0288972  -3.1346630  24.2011166  31.2080000  -1.9430000  22.8460000
  30.9677975  -1.5013162  21.8788819  31.9230000  -0.9010000  23.6920000
  32.7385273  -0.4782916  23.1052018  31.2128798  -0.1140153  23.9459380
  32.4320000  -1.4580000  24.8570000  32.8764292  -0.7783449  25.3690072
  32.0880000  -3.1850000  22.5110000  31.8290000  -4.2830000  22.9880000
  33.0850000  -3.0040000  21.6420000  33.1695684  -2.1191747  21.1623837
  34.0510000  -4.0260000  21.3590000  34.8977713  -3.5543103  20.8604156
  34.3781883  -4.4467672  22.3097903  33.5200000  -5.1460000  20.4790000
  32.5090000  -5.0010000  19.8020000  34.2340000  -6.2600000  20.4390000
  35.0791827  -6.3315265  20.9873152  33.9330000  -7.3200000  19.5010000
  33.7228855  -6.8946053  18.5196792  35.1490000  -8.3050000  19.3710000
  34.9866837  -8.9343674  18.4959861  36.0143123  -7.6642058  19.2015380
  35.3970000  -9.1750000  20.5760000  34.9170000  -8.8770000  21.6740000
  36.0700000 -10.2220000  20.4020000  32.6280000  -8.0700000  19.7540000
  32.0860000  -8.7180000  18.8330000  32.1390000  -7.9960000  20.9880000
  32.6693201  -7.6169974  21.7595031  30.8040000  -8.5610000  21.2670000
  30.5474091  -9.2587397  20.4698679  30.7420000  -9.2940000  22.5900000
  31.2038075  -8.6531672  23.3411101  29.7273134  -9.5435233  22.9002407
  31.5030000 -10.5540000  22.5860000  31.3830000 -11.5180000  23.5720000
  32.2080000 -12.5110000  23.2970000  32.2878194 -13.3745091  23.9573634
  32.8290000 -12.2240000  22.1640000  33.5435914 -12.7890908  21.7279593
  32.3550000 -11.0410000  21.6700000  32.6932545 -10.6816189  20.6981305
  29.7340000  -7.5390000  21.2380000  28.6170000  -7.8050000  21.6610000
  30.0030000  -6.3650000  20.6340000  30.9220736  -6.1929704  20.2521507
  29.0110000  -5.3190000  20.5300000  28.6621554  -5.0298212  21.5213538
  29.6270000  -4.0940000  19.8520000  30.6263888  -3.8677159  20.2236405
  29.6559270  -4.1863047  18.7663006  28.6830000  -2.7280000  20.1820000
  29.4333102  -1.8712361  19.4950586  27.8050000  -5.7790000  19.7310000
  27.9590000  -6.3630000  18.6160000  26.6380000  -5.4920000  20.2410000
  26.6022662  -5.1845233  21.2023951  25.3710000  -5.7630000  19.5490000
  25.5161182  -6.3698334  18.6552477  24.3760000  -6.4780000  20.5040000
  23.4462492  -6.6850186  19.9740876  24.9980000  -7.8060000  20.9900000
  25.9276155  -7.5997419  21.5204464  24.3018506  -8.3099755  21.6604368
  25.2040154  -8.4465930  20.1325052  24.0130000  -5.5470000  21.6630000
  24.9180139  -5.3792696  22.2468810  23.6774718  -4.6026069  21.2344654
  22.9540000  -6.0940000  22.5410000  23.2890086  -7.0382317  22.9702967
  22.7436846  -5.3855225  23.3422030  22.0484666  -6.2615712  21.9578800
  24.7720000  -4.5450000  18.8670000  23.7420000  -4.6550000  18.2320000
  25.3940000  -3.3800000  19.0270000  26.1552383  -3.2315274  19.6739710
  24.8090000  -2.2180000  18.3700000  23.7220204  -2.2010365  18.4492896
  25.3830000  -0.9210000  18.9480000  26.4699920  -0.9983874  18.9716633
  24.9740000   0.2900000  18.0920000  23.8870767   0.3683193  18.0682435
  25.3939028   1.1987849  18.5231524  25.3508099   0.1621697  17.0772227
  24.9560000  -0.7300000  20.4440000  23.8989519  -0.4648803  20.4225163
  25.0760337  -1.7047627  20.9167886  25.7130000   0.3000000  21.2250000
  25.5930519   1.2751779  20.7530463  25.3274318   0.3400739  22.2437397
  26.7701347   0.0352964  21.2473166  24.9300000  -2.3790000  16.8390000
  25.9340000  -2.8650000  16.2840000  23.8640000  -2.0360000  16.1620000
  23.0635527  -1.6369583  16.6312006  23.7980000  -2.2190000  14.7090000
  23.0595164  -1.5220127  14.3128311  24.7778691  -1.9846196  14.2930411
  23.4140000  -3.6280000  14.3030000  23.3910000  -3.8930000  13.0830000
  23.0720000  -4.5230000  15.2350000  23.1934560  -4.2787749  16.2074721
  22.6470000  -5.8530000  14.9170000  22.7947388  -6.0376147  13.8529559
  23.4500000  -6.8960000  15.7130000  23.2758619  -6.7660047  16.7811181
  23.1528352  -7.9019935  15.4167397  24.9340000  -6.6940000  15.4110000
  25.0472987  -6.6288763  14.3288618  25.2405719  -5.7517833  15.8652504
  25.7990000  -7.8130000  15.9410000  25.5670333  -7.9720519  16.9940873
  25.5841706  -8.7229593  15.3807126  27.2200000  -7.5120000  15.8160000
  27.6588154  -7.0547096  16.6024006  27.9700000  -7.7910000  14.7360000
  27.4550000  -8.3440000  13.6520000  26.4706348  -8.5681276  13.6221326
  28.0481106  -8.5399979  12.8583349  29.2650000  -7.5160000  14.7520000
  29.6795828  -7.0995156  15.5734389  29.8323368  -7.7239665  13.9426931
  21.1600000  -5.9090000  15.1480000  20.5550000  -4.9060000  15.4670000
  20.5210000  -7.0600000  14.9610000  21.0294077  -7.9158228  14.7901544
  19.0440000  -7.1230000  15.0290000  18.6669386  -6.1030795  15.1044064
  18.4590000  -7.7730000  13.7540000  18.9438868  -8.7402795  13.6222603
  16.9450000  -7.9680000  13.8250000  16.4593615  -7.0010354  13.9562792
  16.5936849  -8.4280289  12.9013928  16.7005147  -8.6142218  14.6680450
  18.7120000  -6.9010000  12.6550000  18.3557478  -7.2871598  11.8515292
  18.6250000  -7.9790000  16.2150000  19.0580000  -9.1180000  16.4000000
  17.6910000  -7.4620000  17.0150000  17.3875012  -6.5072036  16.8871260
  17.0470000  -8.2660000  18.0750000  17.7232702  -9.0297618  18.4589605
  16.6870000  -7.3150000  19.2150000  17.6398253  -6.8501654  19.4682824
  16.0087236  -6.5594254  18.8185808  16.0800000  -7.9360000  20.4610000
  15.1982706  -8.5097595  20.1755984  17.0920000  -8.8630000  21.1540000
  17.9738676  -8.2898171  21.4401290  16.6371593  -9.2975295  22.0441712
  17.3834731  -9.6598044  20.4697145  15.6080000  -6.8630000  21.4060000
  14.8543453  -6.2493359  20.9125222  15.1756457  -7.3245019  22.2937990
  16.4518351  -6.2372963  21.6967510  15.7710000  -8.8730000  17.4760000
  15.0170000  -8.1830000  16.7870000  15.5510000 -10.1800000  17.7360000
  16.1754475 -10.6539029  18.3728522  14.4320000 -10.9370000  17.1680000
  13.7192403 -10.2863153  16.6613618  14.9280000 -11.9870000  16.1730000
  15.6071080 -12.6615744  16.6944028  13.7560000 -12.8000000  15.5690000
  13.0766623 -12.1261150  15.0470036  14.1475552 -13.5360332  14.8668318
  13.2178880 -13.3107616  16.3675360  15.7680000 -11.3440000  15.0060000
  16.6362392 -10.8326151  15.4216299  16.1000077 -12.1259487  14.3230455
  15.1498770 -10.6278304  14.4645889  13.7270000 -11.6610000  18.3110000
  14.3460000 -12.2960000  19.1790000  12.4110000 -11.6040000  18.2400000
  11.9739483 -10.9103026  17.6501957  11.5170000 -12.4780000  19.1120000
  12.0590089 -13.1734635  19.7528245  10.5810000 -11.6390000  19.9830000
  11.2114699 -10.9987252  20.5999726   9.5950000 -10.7820000  19.2070000
   8.9638291 -11.4216553  18.5901002   8.9722003 -10.2218728  19.9044802
  10.1406573 -10.0868269  18.5689606   9.8740000 -12.5090000  20.9810000
  10.6078857 -12.9998847  21.6201761   9.2117850 -11.8965688  21.5929632
   9.2881606 -13.2632629  20.4556615  10.7870000 -13.4450000  18.1940000
  10.2920000 -13.1020000  17.1070000  10.7350000 -14.7120000  18.6340000
  11.0452101 -14.9050874  19.5755871  10.2800000 -15.8480000  17.7970000
  10.2222438 -15.5604514  16.7472004  11.3110000 -16.9950000  17.9400000
  11.5339984 -17.1417269  18.9968075  10.9312536 -17.9249467  17.5168075
  12.6170000 -16.7170000  17.2610000  12.8780000 -17.1140000  15.9810000
  14.1080000 -16.7450000  15.6670000  14.5037754 -17.0267691  14.6912608
  14.6490000 -16.0680000  16.6530000  15.5575554 -15.6283020  16.6889517
  13.7280000 -16.0590000  17.6730000  13.9655681 -15.5695358  18.6175038
   8.9230000 -16.3570000  18.1540000   8.3940000 -16.1630000  19.2340000
   8.4290000 -17.1750000  17.2350000   9.0005325 -17.3019457  16.4119965
   7.1350000 -17.8970000  17.3110000   6.2902696 -17.2158864  17.4140243
   6.9990000 -18.6520000  15.9730000   6.9543640 -17.8812943  15.2035069
   7.9211297 -19.2224966  15.8620472   5.8020000 -19.5870000  15.8260000
   5.8107149 -20.1523438  16.7578858   4.8564118 -19.0525603  15.7346963
   5.9600000 -20.5440000  14.6500000   5.0130000 -21.3040000  14.3950000
   7.0180000 -20.6750000  14.0110000   7.1000000 -18.8640000  18.4700000
   6.1050000 -18.9600000  19.2060000   8.1560000 -19.6960000  18.5500000
   8.9339520 -19.5551809  17.9214620   8.2160000 -20.8310000  19.4970000
   7.2451294 -20.9879505  19.9669745   8.6020000 -22.1060000  18.7290000
   9.6389951 -21.9847089  18.4159042   8.5304630 -22.9338387  19.4344542
   7.7580000 -22.3930000  17.5430000   6.7210952 -22.4532820  17.8735983
   7.8679335 -21.5651263  16.8425417   8.1630000 -23.7460000  16.8280000
   9.2505859 -23.7341902  16.7564714   7.8522760 -24.5457923  17.5002219
   7.5650000 -23.9840000  15.4440000   6.4867894 -24.1200204  15.5280295
   7.7737993 -23.1286419  14.8014546   8.1650000 -25.1880000  14.8640000
   7.9712704 -25.9807884  15.4590253   7.7733358 -25.3512643  13.9474609
   9.1640424 -25.0620025  14.7856543   9.2230000 -20.5400000  20.5900000
  10.0720000 -19.6200000  20.4810000   9.1800000 -21.3240000  21.6380000
   8.4011904 -21.9552137  21.7609803  10.2350000 -21.3050000  22.6700000
  10.4181384 -20.3013378  23.0536947   9.8400000 -22.1940000  23.8180000
   9.6620862 -23.2048012  23.4509474  10.6413366 -22.2120355  24.5566709
   8.9300414 -21.8100509  24.2791483  11.5430000 -21.7960000  22.0310000
  11.5860000 -22.7080000  21.1660000  12.6380000 -21.2610000  22.5570000
  12.5137606 -20.4367442  23.1273212  13.9990000 -21.7490000  22.3300000
  14.1399878 -22.0990454  21.3074102  14.9280000 -20.5530000  22.5710000
  14.5667274 -19.7445063  21.9354536  14.7906782 -20.2808561  23.6175087
  16.3880000 -20.7870000  22.3020000  16.8680000 -21.9510000  22.2460000
  17.1200000 -19.7650000  22.1200000  14.2940000 -22.9150000  23.2510000
  14.1100000 -22.7940000  24.4690000  14.7020000 -24.0590000  22.6630000
  14.7416918 -24.1442469  21.6573873  15.0020000 -25.2570000  23.4820000
  14.3630325 -25.2732750  24.3649241  14.7470000 -26.5320000  22.6690000
  14.7767666 -27.3902196  23.3403213  13.7332319 -26.4028913  22.2899153
  15.6840000 -26.7630000  21.5210000  16.8010000 -26.1880000  21.5040000
  15.3180000 -27.6050000  20.6200000  16.4270000 -25.2350000  24.0480000
  16.8140000 -26.1970000  24.7330000  17.1380000 -24.1120000  23.8660000
  16.8482588 -23.4442000  23.1658625  18.4250000 -23.8900000  24.5550000
  18.8638233 -22.9591399  24.1957886  18.2560000 -23.7970000  26.0810000
  18.0545795 -24.8298330  26.3652269  19.1807656 -23.4646549  26.5526517
  17.1030000 -22.9090000  26.5410000  16.1603189 -23.2818322  26.1404386
  17.0550000 -22.9390000  28.0570000  17.9972308 -22.5658489  28.4583205
  16.2368089 -22.3099445  28.4076468  16.8964241 -23.9627933  28.3958235
  17.1510000 -21.4920000  26.0170000  17.1229697 -21.5058343  24.9274486
  16.2936332 -20.9350656  26.3949516  18.0710602 -21.0118250  26.3501968
  19.4820000 -24.9100000  24.1720000  20.4850000 -25.0670000  24.8870000
  19.3540000 -25.5050000  22.9800000  18.6109226 -25.2889930  22.3309420
  20.3460000 -26.5270000  22.5930000  20.3067268 -26.6091345  21.5068091
  21.3228509 -26.1477809  22.8930909  20.1440000 -27.8940000  23.1960000
  20.9800000 -28.8090000  22.9200000  18.9970000 -28.1240000  23.8330000
  18.2761313 -27.4180564  23.8787296  18.7720000 -29.3820000  24.5190000
  19.6814565 -29.9824822  24.4987725  18.3870000 -29.1340000  25.9650000
  17.5283078 -28.4627421  25.9523574  18.0892903 -30.0961317  26.3818592
  19.4570000 -28.5480000  26.7960000  19.8408191 -27.6645926  26.2857303
  19.0248370 -28.2551932  27.7528706  20.6040000 -29.5390000  27.0350000
  20.2046840 -30.4063990  27.5606089  20.9963634 -29.8503356  26.0668985
  21.7140000 -28.9220000  27.8530000  21.2608345 -28.2720742  28.6015573
  22.2543754 -29.7271230  28.3508660  22.6530000 -28.1380000  27.0240000
  22.1525537 -27.3916390  26.5629159  23.3748645 -27.7463891  27.6119222
  23.0733432 -28.7401447  26.3305791  17.7010000 -30.2280000  23.8690000
  17.2480000 -31.1900000  24.4810000  17.3310000 -29.9210000  22.6370000
  17.8074324 -29.1630694  22.1693969  16.2690000 -30.6210000  21.9170000
  15.5000348 -30.8509365  22.6545099  15.8738138 -29.9115773  21.1899191
  16.6610000 -31.8980000  21.1980000  15.8110000 -32.5990000  20.6510000
  17.9100000 -32.2510000  21.1680000  18.7381226 -31.7740710  21.4948807
  18.0740000 -33.6240000  20.5170000  19.1016463 -33.9096669  20.7415813
  17.3894788 -34.2689409  21.0679821  17.8180000 -33.8040000  18.9760000
  17.7380000 -34.9240000  18.4850000  17.7430000 -32.7190000  18.2070000
  17.5654915 -31.8362643  18.6645672  17.8380000 -32.7370000  16.7380000
  18.1271784 -33.7400960  16.4245140  16.5160000 -32.3630000  16.0360000
  16.5904584 -32.5337098  14.9620292  15.7357037 -33.0006575  16.4514884
  16.1360000 -30.9210000  16.2700000  16.8270000 -30.2580000  17.0390000
  15.0850000 -30.4150000  15.5960000  14.8140118 -29.4524384  15.7379166
  14.5728110 -31.0005036  14.9518349  18.9770000 -31.7630000  16.3860000
  19.4790000 -31.0030000  17.2470000  19.4190000 -31.7760000  15.1340000
  19.0357924 -32.3769075  14.4183454  20.6100000 -30.9740000  14.8080000
  21.3692591 -31.1046960  15.5790663  21.1900000 -31.4160000  13.4760000
  22.1530533 -30.9195369  13.3570385  21.3414137 -32.4942658  13.5261666
  20.3440000 -31.1010000  12.3490000  20.4649832 -31.8705541  11.5866022
  19.3174474 -31.1113952  12.7153071  20.6630000 -29.6970000  11.7290000
  21.7150000 -29.0870000  11.9190000  19.8050000 -29.2370000  11.0060000
  20.3320000 -29.4670000  14.8450000  21.1990000 -28.6940000  15.2300000
  19.0940000 -29.0810000  14.5480000  18.3655261 -29.7091588  14.2400363
  18.7940000 -27.6420000  14.6100000  19.5676788 -27.0945017  14.0717010
  17.4440000 -27.3120000  13.9900000  16.6943897 -27.9179626  14.4989134
  17.2471748 -26.2567882  14.1794409  17.3790000 -27.5850000  12.4580000
  16.6779829 -26.8269329  12.1087007  18.3512276 -27.4219025  11.9929497
  16.8510000 -28.9950000  12.0730000  16.8390000 -29.9400000  12.9200000
  16.5370000 -29.1640000  10.8480000  18.8250000 -27.0990000  16.0300000
  19.0060000 -25.8990000  16.2230000  18.6140000 -27.9490000  17.0220000
  18.3922330 -28.9230414  16.8731307  18.6230000 -27.4420000  18.3930000
  17.8051242 -26.7375805  18.5445636  18.4460000 -28.6090000  19.3580000
  17.4986582 -29.1096880  19.1581141  19.2646460 -29.3173528  19.2308972
  18.4490000 -28.1170000  20.6890000  18.3377798 -28.8484218  21.3007615
  19.8890000 -26.6610000  18.6980000  19.8340000 -25.6400000  19.3880000
  21.0470000 -27.1590000  18.2810000  21.0599966 -28.0742116  17.8540127
  22.3460000 -26.5120000  18.6000000  22.2012870 -25.8530446  19.4561163
  23.4540000 -27.4890000  18.9240000  24.3895089 -26.9319804  18.9755023
  23.2240000 -28.2100000  20.2340000  22.2888381 -28.7676558  20.1830903
  24.0477972 -28.8992377  20.4194957  23.1694177 -27.4833065  21.0445788
  23.4880000 -28.4310000  17.8470000  24.1803318 -29.0762562  18.0080015
  22.7340000 -25.4690000  17.4860000  23.8620000 -24.9720000  17.4880000
  21.7510000 -25.0530000  16.6750000  20.8908772 -25.5820896  16.6937708
  21.8710000 -23.9270000  15.6940000  22.8612381 -23.4778373  15.7700306
  21.6700000 -24.4350000  14.2530000  20.6787875 -24.8827005  14.1811574
  21.7332868 -23.5831370  13.5759296  22.6870000 -25.4330000  13.8820000
  23.6654282 -24.9531354  13.9045610  22.6616600 -26.2398878  14.6143879
  22.4430000 -25.9780000  12.5490000  21.5634429 -26.6212280  12.5761287
  22.2728777 -25.1600842  11.8488774  23.6510000 -26.7890000  12.0980000
  23.4430276 -27.8459407  12.2645061  23.8108099 -26.6138854  11.0340945
  24.8570000 -26.4040000  12.8440000  24.7092804 -26.5665916  13.8298208
  25.6404835 -26.9560441  12.5254078  25.0501315 -25.4247499  12.6895053
  20.9210000 -22.8050000  15.9930000  21.3380000 -21.6600000  16.1800000
  19.6260000 -23.0990000  16.0780000  19.3823074 -24.0789329  16.0990890
  18.5560000 -22.1160000  16.2270000  18.9359411 -21.0944047  16.2176696
  17.5220000 -22.2700000  15.0840000  16.7211025 -21.5484997  15.2455571
  18.1570000 -22.0290000  13.7090000  18.9577356 -22.7504727  13.5465213
  17.4003059 -22.1459756  12.9332230  18.5649262 -21.0190179  13.6685911
  16.9710000 -23.5740000  15.1810000  16.3239395 -23.7006811  14.4832430
  17.7500000 -22.3430000  17.5070000  16.9090000 -21.4970000  17.8310000
  17.9450000 -23.4580000  18.2250000  18.6896713 -24.1024945  18.0009670
  17.0780000 -23.7690000  19.3570000  17.4941403 -24.6352262  19.8713721
  17.0821172 -22.9111679  20.0294630  15.6380000 -24.0760000  18.9520000
  14.7630000 -24.2030000  19.8240000  15.3820000 -24.3500000  17.6600000
  16.1301510 -24.2573519  16.9878499  14.0310000 -24.6870000  17.1630000
  14.0294176 -24.7067568  16.0731806  13.6090000 -26.0630000  17.6770000
  13.7802389 -26.0905148  18.7531131  12.5524872 -26.2371670  17.4731703
  14.4070000 -27.1580000  17.0370000  14.2380000 -27.4180000  15.8400000
  15.2610000 -27.8380000  17.8030000  15.8132057 -28.5819263  17.4008281
  15.3516604 -27.6059560  18.7817937  12.9920000 -23.6140000  17.5280000
  11.8210000 -23.9040000  17.7490000  13.4250000 -22.3380000  17.5530000
  14.4054249 -22.1260203  17.4349710  12.5340000 -21.2670000  17.9200000
  11.9347559 -21.6981960  18.7219200  13.3190000 -20.0540000  18.4850000
  13.9169204 -19.6059356  17.6913820  12.6175020 -19.3149518  18.8720512
  13.9748994 -20.3876527  19.2890965  11.5620000 -20.8550000  16.8210000
  10.6420000 -20.0500000  17.0850000  11.7660000 -21.3900000  15.6140000
  12.5618784 -21.9703852  15.3907740  10.7880000 -21.1220000  14.5630000
  10.9890393 -21.8123291  13.7437759   9.7995288 -21.3256473  14.9747667
  10.8180000 -19.6980000  14.0290000  11.8510000 -19.0240000  13.9780000
   9.6720000 -19.2900000  13.5190000   8.8401200 -19.8554149  13.6105482
   9.5910000 -18.0540000  12.7270000  10.3346444 -18.0560193  11.9300758
   8.1820000 -17.9700000  12.0890000   7.4299105 -18.0136236  12.8767548
   8.0892157 -17.0267879  11.5506301   7.9900000 -19.0310000  11.2040000
   7.1145394 -18.9688115  10.8150254   9.9190000 -16.8380000  13.5810000
   9.8220000 -16.7950000  14.8040000  10.2290000 -15.7820000  12.8680000
  10.2416634 -15.8690131  11.8618351  10.5820000 -14.5070000  13.4500000
  10.9165081 -14.6385556  14.4790271  11.7220000 -13.8800000  12.6410000
  11.3664867 -13.6744177  11.6313241  12.0207705 -12.9463480  13.1175817
  12.9190000 -14.8230000  12.5760000  13.2998007 -14.9537910  13.5889094
  12.5713329 -15.7822163  12.1924199  14.0440000 -14.2850000  11.6700000
  13.6735916 -14.0568898  10.6705690  14.5062816 -13.3952317  12.0974430
  15.0670000 -15.3460000  11.5650000  14.7763210 -16.2737220  11.8387462
  16.3140000 -15.1750000  11.1160000  16.7420000 -13.9970000  10.7190000
  16.1216591 -13.2006031  10.7510817  17.6891512 -13.8939019  10.3837761
  17.1110000 -16.2200000  11.1130000  16.7707530 -17.1117191  11.4434075
  18.0600365 -16.1265058  10.7803030   9.3550000 -13.6090000  13.4490000
   8.8710000 -13.1580000  12.4150000   8.8180000 -13.3340000  14.6170000
   9.2172004 -13.6833660  15.4764660   7.5680000 -12.5420000  14.6940000
   6.9343987 -12.7770275  13.8387745   6.8060000 -12.8540000  15.9590000
   7.4339311 -12.5618580  16.8006976   5.9069230 -12.2378890  15.9460487
   6.4100000 -14.3380000  16.1040000   7.3128179 -14.9149329  16.3044223
   5.4140000 -14.5500000  17.2300000   4.5106732 -13.9737051  17.0300407
   5.1616243 -15.6081915  17.2981030   5.8535870 -14.2205285  18.1714416
   5.7510000 -14.8420000  14.7920000   6.4562236 -14.7381587  13.9673934
   5.4745601 -15.8904901  14.9031340   4.8588199 -14.2517544  14.5828978
   7.7600000 -11.0400000  14.6310000   6.9370000 -10.3300000  14.1080000
   8.8630000 -10.5760000  15.2200000   9.4733885 -11.2010970  15.7267336
   9.1920000  -9.1240000  15.2080000   8.9782824  -8.7087491  14.2231190
   8.3940000  -8.3490000  16.2460000   8.6044677  -8.7473381  17.2385372
   8.6757028  -7.2966408  16.2101684   7.3293197  -8.4470124  16.0339888
  10.6620000  -8.9780000  15.4340000  11.3310000  -9.8190000  16.0480000
  11.1650000  -7.8370000  14.9840000  10.5721600  -7.1460519  14.5467007
  12.6030000  -7.5590000  15.0810000  12.9659569  -7.8628651  16.0628490
  13.3780000  -8.3130000  14.0250000  14.4431506  -8.1106837  14.1373455
  13.1986024  -9.3827719  14.1322593  12.9730000  -7.9100000  12.3320000
  13.8381763  -8.7542315  11.7773456  12.8270000  -6.0610000  14.9220000
  11.9470000  -5.3050000  14.4930000  14.0510000  -5.6600000  15.2360000
  14.7097867  -6.2899609  15.6710273  14.4880000  -4.2670000  14.9550000
  14.2093363  -3.9833218  13.9401244  14.0274153  -3.5785941  15.6635608
  15.9800000  -4.1840000  15.0930000  16.6190000  -5.0460000  15.7020000
  16.5400000  -3.1030000  14.5580000  15.9830855  -2.4417320  14.0358217
  17.9460000  -2.8700000  14.6640000  18.5142689  -3.8001384  14.6675126
  18.4310000  -1.9970000  13.4760000  17.9360785  -1.0271912  13.5272131
  19.9160000  -1.8030000  13.5290000  20.4116586  -2.7724108  13.4773644
  20.2329130  -1.1881434  12.6866117  20.1851066  -1.3071361  14.4616319
  18.0590000  -2.5850000  12.1470000  16.9747507  -2.6738593  12.0791060
  18.4206553  -1.9372051  11.3484595  18.5109095  -3.5717919  12.0464003
  18.2120000  -2.2060000  15.9850000  17.5200000  -1.2910000  16.4320000
  19.2980000  -2.6090000  16.6620000  19.8468872  -3.3479039  16.2462558
  19.6920000  -2.1100000  17.9610000  18.8310119  -1.8051679  18.5558748
  20.5060000  -3.1760000  18.7390000  21.3625584  -3.4825258  18.1386252
  20.9960000  -2.5940000  20.0660000  20.1399271  -2.2876532  20.6671584
  21.5667982  -3.3494607  20.6059715  21.6309409  -1.7295659  19.8718276
  19.6560000  -4.4460000  18.9470000  18.9127997  -4.2444187  19.7184396
  19.1515198  -4.6839145  18.0105194  20.5340000  -5.6440000  19.3780000
  21.0384741  -5.4069924  20.3147140  19.9060180  -6.5240589  19.5166877
  21.2771962  -5.8464867  18.6067942  20.4890000  -0.8080000  17.7220000
  21.5600000  -0.8350000  17.1010000  19.9780000   0.2700000  18.2730000
  19.1617289   0.1791360  18.8608304  20.5440000   1.6080000  18.0710000
  21.3296364   1.5296814  17.3195076  19.7497025   2.2553758  17.6993882
  21.1180000   2.2070000  19.3140000  20.7420000   1.8800000  20.4450000
  22.0780000   3.1150000  19.1170000  22.4454621   3.2741500  18.1897772
  22.6310000   3.9000000  20.2300000  22.9462047   3.3062959  21.0880563
  23.8320000   4.7450000  19.7150000  23.5179667   5.2667835  18.8109948
  24.3000000   5.7530000  20.7420000  24.6146533   5.2318989  21.6461834
  25.1393629   6.3198735  20.3392284  23.4835740   6.4343439  20.9814124
  24.9420000   3.8300000  19.2500000  25.3471254   3.3504445  20.1410672
  24.4807901   3.0771927  18.6107300  26.0340000   4.5010000  18.5120000
  26.4960271   5.2536789  19.1508312  26.7822292   3.7641250  18.2199940
  25.6296910   4.9804293  17.6204947  21.5650000   4.8160000  20.7870000
  20.8610000   5.5220000  20.0290000  21.4320000   4.8290000  22.1190000
  22.0240795   4.2136329  22.6583186  20.4440000   5.6240000  22.8230000
  19.8157495   6.1208600  22.0837229  19.5710000   4.7500000  23.6880000
  20.1846280   4.2526876  24.4391598  18.8182628   5.3637467  24.1827747
  19.0782208   4.0009524  23.0681648  21.0950000   6.6910000  23.6470000
  22.2860000   6.6180000  23.9990000  20.3280000   7.7210000  23.9740000
  19.3717089   7.7655670  23.6520988  20.8510000   8.8410000  24.7330000
  21.8427783   9.1061404  24.3667003  19.9390000  10.0510000  24.5870000
  20.5018852  10.8779341  25.0199428  19.8443427  10.2003139  23.5114325
  18.5850000   9.9980000  25.2010000  18.0138855   9.2437621  24.6596551
  18.5865790   9.7579972  26.2642489  17.9030000  11.3660000  25.0060000
  17.6960000  11.8560000  23.8810000  17.6280000  12.0270000  26.1140000
  17.1807529  12.9310421  26.0612797  17.8659697  11.6259794  27.0099097
  21.0410000   8.5270000  26.1530000  20.3620000   7.6890000  26.6930000
  21.8450000   9.1980000  26.7960000
